/*--------------------------------*- C++ -*----------------------------------*\
| =========                 |                                                 |
| \\      /  F ield         | OpenFOAM: The Open Source CFD Toolbox           |
|  \\    /   O peration     | Version:  2406                                  |
|   \\  /    A nd           | Website:  www.openfoam.com                      |
|    \\/     M anipulation  |                                                 |
\*---------------------------------------------------------------------------*/
FoamFile
{
    version     2.0;
    format      ascii;
    arch        "LSB;label=32;scalar=64";
    class       volScalarField;
    location    "9";
    object      p;
}
// * * * * * * * * * * * * * * * * * * * * * * * * * * * * * * * * * * * * * //

dimensions      [0 2 -2 0 0 0 0];

internalField   nonuniform List<scalar> 
160
(
0.00110946
0.0010467
0.00099054
0.000946865
0.000909031
0.000873324
0.00083925
0.000806944
0.000776278
0.000746977
0.000718788
0.000691505
0.000664957
0.000639
0.000613514
0.000588399
0.000563576
0.000538979
0.000514558
0.000490274
0.000466094
0.000441994
0.000417955
0.000393963
0.000370007
0.000346076
0.000322166
0.000298271
0.000274387
0.000250512
0.000226642
0.000202777
0.000178916
0.000155057
0.000131199
0.000107343
8.34882e-05
5.96338e-05
3.57798e-05
1.19263e-05
0.00100346
0.000986183
0.000960369
0.000931012
0.000900374
0.000869189
0.000838012
0.000807372
0.000777574
0.000748674
0.000720607
0.000693282
0.000666601
0.000640469
0.000614795
0.000589497
0.000564503
0.000539754
0.000515201
0.000490802
0.000466525
0.000442344
0.000418238
0.00039419
0.000370188
0.000346221
0.000322281
0.000298362
0.000274459
0.000250568
0.000226686
0.000202812
0.000178943
0.000155077
0.000131215
0.000107355
8.34972e-05
5.96402e-05
3.57839e-05
1.19282e-05
0.00100346
0.000986183
0.000960369
0.000931012
0.000900374
0.000869189
0.000838012
0.000807372
0.000777574
0.000748674
0.000720607
0.000693282
0.000666601
0.000640469
0.000614795
0.000589497
0.000564503
0.000539754
0.0005152
0.000490801
0.000466525
0.000442344
0.000418238
0.00039419
0.000370188
0.000346221
0.000322281
0.000298362
0.000274459
0.000250568
0.000226686
0.000202812
0.000178943
0.000155077
0.000131215
0.000107355
8.34973e-05
5.96403e-05
3.5784e-05
1.19282e-05
0.00110946
0.0010467
0.00099054
0.000946865
0.000909031
0.000873324
0.00083925
0.000806945
0.000776278
0.000746977
0.000718788
0.000691505
0.000664957
0.000639001
0.000613514
0.0005884
0.000563576
0.000538979
0.000514558
0.000490274
0.000466094
0.000441994
0.000417956
0.000393964
0.000370007
0.000346077
0.000322166
0.000298271
0.000274387
0.000250512
0.000226642
0.000202777
0.000178916
0.000155057
0.000131199
0.000107343
8.34882e-05
5.96337e-05
3.57798e-05
1.19263e-05
)
;

boundaryField
{
    inlet
    {
        type            fixedFluxPressure;
        gradient        uniform 0;
        value           nonuniform List<scalar> 4(0.00110946 0.00100346 0.00100346 0.00110946);
    }
    outlet
    {
        type            fixedValue;
        value           uniform 0;
    }
    walls
    {
        type            zeroGradient;
    }
    frontAndBack
    {
        type            empty;
    }
}


// ************************************************************************* //
