/*--------------------------------*- C++ -*----------------------------------*\
| =========                 |                                                 |
| \\      /  F ield         | OpenFOAM: The Open Source CFD Toolbox           |
|  \\    /   O peration     | Version:  2406                                  |
|   \\  /    A nd           | Website:  www.openfoam.com                      |
|    \\/     M anipulation  |                                                 |
\*---------------------------------------------------------------------------*/
FoamFile
{
    version     2.0;
    format      ascii;
    arch        "LSB;label=32;scalar=64";
    class       surfaceScalarField;
    location    "9";
    object      phi;
}
// * * * * * * * * * * * * * * * * * * * * * * * * * * * * * * * * * * * * * //

dimensions      [0 3 -1 0 0 0 0];

oriented        oriented;

internalField   nonuniform List<scalar> 
276
(
5.34577e-09
1.54228e-10
5.10947e-09
2.36299e-10
4.87808e-09
2.31397e-10
4.66754e-09
2.10531e-10
4.48203e-09
1.85518e-10
4.32349e-09
1.58533e-10
4.19146e-09
1.32035e-10
4.08341e-09
1.08053e-10
3.99584e-09
8.75669e-11
3.92544e-09
7.04015e-11
3.86924e-09
5.61984e-11
3.82465e-09
4.45912e-11
3.78945e-09
3.52027e-11
3.76178e-09
2.76691e-11
3.74011e-09
2.16622e-11
3.72322e-09
1.68984e-11
3.71008e-09
1.31382e-11
3.6999e-09
1.01827e-11
3.69203e-09
7.86826e-12
3.68596e-09
6.06207e-12
3.68131e-09
4.65703e-12
3.67774e-09
3.56737e-12
3.67502e-09
2.72479e-12
3.67294e-09
2.07516e-12
3.67136e-09
1.57572e-12
3.67017e-09
1.19283e-12
3.66927e-09
9.00146e-13
3.66859e-09
6.77052e-13
3.66809e-09
5.07505e-13
3.66771e-09
3.79044e-13
3.66743e-09
2.82024e-13
3.66722e-09
2.09002e-13
3.66706e-09
1.54249e-13
3.66695e-09
1.13375e-13
3.66687e-09
8.30437e-14
3.66681e-09
6.07239e-14
3.66676e-09
4.46134e-14
3.66673e-09
3.32736e-14
3.6667e-09
2.65981e-14
2.25539e-14
5.65423e-09
6.45668e-19
5.89053e-09
8.18811e-19
6.12192e-09
1.09826e-18
6.33246e-09
1.39384e-18
6.51797e-09
1.577e-18
6.67651e-09
1.62518e-18
6.80854e-09
1.45577e-18
6.91659e-09
8.84318e-19
7.00416e-09
-3.35225e-19
7.07456e-09
-2.32465e-18
7.13076e-09
-5.18988e-18
7.17535e-09
-8.89799e-18
7.21055e-09
-1.31627e-17
7.23822e-09
-1.74243e-17
7.25989e-09
-2.09184e-17
7.27678e-09
-2.28174e-17
7.28992e-09
-2.24397e-17
7.30011e-09
-1.94751e-17
7.30797e-09
-1.40891e-17
7.31404e-09
-6.88327e-18
7.31869e-09
1.312e-18
7.32226e-09
9.7259e-18
7.32499e-09
1.78091e-17
7.32706e-09
2.51511e-17
7.32864e-09
3.1476e-17
7.32983e-09
3.71299e-17
7.33073e-09
4.36385e-17
7.33141e-09
5.30511e-17
7.33191e-09
6.57739e-17
7.33229e-09
7.85967e-17
7.33257e-09
8.33799e-17
7.33278e-09
7.52958e-17
7.33294e-09
5.67363e-17
7.33305e-09
3.2653e-17
7.33313e-09
7.97111e-18
7.3332e-09
-1.3531e-17
7.33324e-09
-2.95019e-17
7.33327e-09
-4.07625e-17
7.3333e-09
-4.53318e-17
-2.96349e-17
5.65423e-09
-1.54228e-10
5.89053e-09
-2.36299e-10
6.12192e-09
-2.31397e-10
6.33246e-09
-2.10531e-10
6.51797e-09
-1.85518e-10
6.67651e-09
-1.58533e-10
6.80854e-09
-1.32035e-10
6.91659e-09
-1.08053e-10
7.00416e-09
-8.75669e-11
7.07456e-09
-7.04015e-11
7.13076e-09
-5.61984e-11
7.17535e-09
-4.45912e-11
7.21055e-09
-3.52027e-11
7.23822e-09
-2.7669e-11
7.25989e-09
-2.16622e-11
7.27678e-09
-1.68984e-11
7.28992e-09
-1.31382e-11
7.3001e-09
-1.01827e-11
7.30797e-09
-7.86828e-12
7.31404e-09
-6.06211e-12
7.31869e-09
-4.65707e-12
7.32226e-09
-3.56742e-12
7.32498e-09
-2.72486e-12
7.32706e-09
-2.07524e-12
7.32864e-09
-1.5758e-12
7.32983e-09
-1.19292e-12
7.33073e-09
-9.00231e-13
7.33141e-09
-6.77136e-13
7.33191e-09
-5.07583e-13
7.33229e-09
-3.79108e-13
7.33258e-09
-2.82065e-13
7.33278e-09
-2.09013e-13
7.33294e-09
-1.5423e-13
7.33305e-09
-1.13332e-13
7.33313e-09
-8.29845e-14
7.3332e-09
-6.06604e-14
7.33324e-09
-4.4557e-14
7.33327e-09
-3.32307e-14
7.3333e-09
-2.65784e-14
-2.25593e-14
5.34577e-09
5.10947e-09
4.87808e-09
4.66754e-09
4.48203e-09
4.32349e-09
4.19146e-09
4.08341e-09
3.99584e-09
3.92544e-09
3.86924e-09
3.82465e-09
3.78945e-09
3.76178e-09
3.74011e-09
3.72322e-09
3.71008e-09
3.6999e-09
3.69203e-09
3.68597e-09
3.68131e-09
3.67774e-09
3.67502e-09
3.67294e-09
3.67136e-09
3.67017e-09
3.66927e-09
3.66859e-09
3.66809e-09
3.66771e-09
3.66743e-09
3.66722e-09
3.66706e-09
3.66695e-09
3.66687e-09
3.66681e-09
3.66676e-09
3.66673e-09
3.6667e-09
)
;

boundaryField
{
    inlet
    {
        type            calculated;
        value           nonuniform List<scalar> 4(-5.5e-09 -5.5e-09 -5.5e-09 -5.5e-09);
    }
    outlet
    {
        type            calculated;
        value           nonuniform List<scalar> 4(3.66668e-09 7.33332e-09 7.33332e-09 3.66668e-09);
    }
    walls
    {
        type            calculated;
        value           uniform 0;
    }
    frontAndBack
    {
        type            empty;
    }
}


// ************************************************************************* //
