/*--------------------------------*- C++ -*----------------------------------*\
| =========                 |                                                 |
| \\      /  F ield         | OpenFOAM: The Open Source CFD Toolbox           |
|  \\    /   O peration     | Version:  2406                                  |
|   \\  /    A nd           | Website:  www.openfoam.com                      |
|    \\/     M anipulation  |                                                 |
\*---------------------------------------------------------------------------*/
FoamFile
{
    version     2.0;
    format      ascii;
    arch        "LSB;label=32;scalar=64";
    class       surfaceScalarField;
    location    "9";
    object      phi;
}
// * * * * * * * * * * * * * * * * * * * * * * * * * * * * * * * * * * * * * //

dimensions      [0 3 -1 0 0 0 0];

oriented        oriented;

internalField   nonuniform List<scalar> 
28
(
1.1e-08
1.4173e-16
1.1e-08
4.53201e-16
1.1e-08
3.96688e-16
1.1e-08
2.58409e-16
1.1e-08
1.59537e-16
1.1e-08
1.00759e-16
1.1e-08
-1.14469e-16
1.1e-08
-1.97428e-16
1.1e-08
1.36298e-16
2.22637e-16
1.1e-08
1.1e-08
1.1e-08
1.1e-08
1.1e-08
1.1e-08
1.1e-08
1.1e-08
1.1e-08
)
;

boundaryField
{
    inlet
    {
        type            calculated;
        value           uniform -1.1e-08;
    }
    outlet
    {
        type            calculated;
        value           nonuniform List<scalar> 2(1.1e-08 1.1e-08);
    }
    walls
    {
        type            calculated;
        value           uniform 0;
    }
    frontAndBack
    {
        type            empty;
    }
}


// ************************************************************************* //
