/*--------------------------------*- C++ -*----------------------------------*\
| =========                 |                                                 |
| \\      /  F ield         | OpenFOAM: The Open Source CFD Toolbox           |
|  \\    /   O peration     | Version:  2406                                  |
|   \\  /    A nd           | Website:  www.openfoam.com                      |
|    \\/     M anipulation  |                                                 |
\*---------------------------------------------------------------------------*/
FoamFile
{
    version     2.0;
    format      ascii;
    arch        "LSB;label=32;scalar=64";
    class       volVectorField;
    location    "9";
    object      U;
}
// * * * * * * * * * * * * * * * * * * * * * * * * * * * * * * * * * * * * * //

dimensions      [0 1 -1 0 0 0 0];

internalField   nonuniform List<vector> 
160
(
(0.0189987 0.000658025 0)
(0.0187799 0.00126485 0)
(0.0182316 0.00141777 0)
(0.0174121 0.00136971 0)
(0.0166273 0.00123816 0)
(0.0159818 0.0010702 0)
(0.0154583 0.000893557 0)
(0.0150283 0.000726894 0)
(0.0146761 0.000579723 0)
(0.014391 0.000455089 0)
(0.0141628 0.000352584 0)
(0.0139814 0.000270157 0)
(0.0138379 0.000205043 0)
(0.0137248 0.000154322 0)
(0.0136361 0.000115255 0)
(0.0135668 8.54441e-05 0)
(0.0135128 6.28813e-05 0)
(0.0134709 4.59307e-05 0)
(0.0134385 3.32842e-05 0)
(0.0134134 2.39121e-05 0)
(0.0133942 1.70129e-05 0)
(0.0133794 1.19695e-05 0)
(0.0133681 8.30988e-06 0)
(0.0133595 5.67589e-06 0)
(0.013353 3.79735e-06 0)
(0.013348 2.47161e-06 0)
(0.0133443 1.54757e-06 0)
(0.0133414 9.13196e-07 0)
(0.0133393 4.85893e-07 0)
(0.0133377 2.05173e-07 0)
(0.0133365 2.70405e-08 0)
(0.0133357 -8.02473e-08 0)
(0.013335 -1.3938e-07 0)
(0.0133345 -1.66382e-07 0)
(0.0133342 -1.72336e-07 0)
(0.0133339 -1.64665e-07 0)
(0.0133337 -1.47783e-07 0)
(0.0133336 -1.23995e-07 0)
(0.0133335 -9.18971e-08 0)
(0.0133334 -5.24693e-08 0)
(0.0201135 0.000651381 0)
(0.020894 0.00123746 0)
(0.0218079 0.00139043 0)
(0.0226522 0.00136413 0)
(0.0233815 0.00126669 0)
(0.0240064 0.00113688 0)
(0.0245353 0.000995369 0)
(0.0249729 0.000855968 0)
(0.025328 0.000726315 0)
(0.0256131 0.000609774 0)
(0.0258409 0.000507394 0)
(0.0260219 0.000419007 0)
(0.0261651 0.000343745 0)
(0.0262778 0.000280366 0)
(0.0263661 0.000227476 0)
(0.026435 0.00018368 0)
(0.0264887 0.000147659 0)
(0.0265303 0.000118213 0)
(0.0265625 9.42712e-05 0)
(0.0265873 7.49032e-05 0)
(0.0266064 5.93067e-05 0)
(0.026621 4.68012e-05 0)
(0.0266322 3.68141e-05 0)
(0.0266408 2.88685e-05 0)
(0.0266472 2.25696e-05 0)
(0.0266522 1.75933e-05 0)
(0.0266559 1.36747e-05 0)
(0.0266587 1.05988e-05 0)
(0.0266608 8.19164e-06 0)
(0.0266623 6.3135e-06 0)
(0.0266635 4.85238e-06 0)
(0.0266644 3.71894e-06 0)
(0.026665 2.84224e-06 0)
(0.0266655 2.16618e-06 0)
(0.0266658 1.6466e-06 0)
(0.0266661 1.24876e-06 0)
(0.0266663 9.46421e-07 0)
(0.0266664 7.17079e-07 0)
(0.0266665 5.5356e-07 0)
(0.0266666 4.16339e-07 0)
(0.0201135 -0.000651381 0)
(0.020894 -0.00123746 0)
(0.0218079 -0.00139043 0)
(0.0226522 -0.00136413 0)
(0.0233815 -0.00126669 0)
(0.0240064 -0.00113688 0)
(0.0245353 -0.000995369 0)
(0.0249729 -0.000855968 0)
(0.025328 -0.000726315 0)
(0.0256131 -0.000609774 0)
(0.0258409 -0.000507394 0)
(0.0260219 -0.000419007 0)
(0.0261651 -0.000343745 0)
(0.0262778 -0.000280366 0)
(0.0263661 -0.000227476 0)
(0.026435 -0.00018368 0)
(0.0264887 -0.00014766 0)
(0.0265303 -0.000118213 0)
(0.0265625 -9.42716e-05 0)
(0.0265873 -7.49035e-05 0)
(0.0266064 -5.93071e-05 0)
(0.026621 -4.68015e-05 0)
(0.0266322 -3.68144e-05 0)
(0.0266408 -2.88687e-05 0)
(0.0266472 -2.25698e-05 0)
(0.0266522 -1.75934e-05 0)
(0.0266559 -1.36747e-05 0)
(0.0266587 -1.05986e-05 0)
(0.0266608 -8.19137e-06 0)
(0.0266623 -6.31311e-06 0)
(0.0266635 -4.85188e-06 0)
(0.0266644 -3.7184e-06 0)
(0.026665 -2.84173e-06 0)
(0.0266655 -2.16576e-06 0)
(0.0266658 -1.64632e-06 0)
(0.0266661 -1.24865e-06 0)
(0.0266663 -9.46468e-07 0)
(0.0266664 -7.17259e-07 0)
(0.0266665 -5.53849e-07 0)
(0.0266666 -4.16637e-07 0)
(0.0189987 -0.000658025 0)
(0.0187799 -0.00126485 0)
(0.0182316 -0.00141777 0)
(0.0174121 -0.00136971 0)
(0.0166273 -0.00123816 0)
(0.0159818 -0.0010702 0)
(0.0154583 -0.000893557 0)
(0.0150283 -0.000726894 0)
(0.0146761 -0.000579723 0)
(0.014391 -0.000455089 0)
(0.0141628 -0.000352584 0)
(0.0139814 -0.000270156 0)
(0.0138379 -0.000205042 0)
(0.0137248 -0.000154322 0)
(0.0136361 -0.000115255 0)
(0.0135668 -8.54435e-05 0)
(0.0135128 -6.28807e-05 0)
(0.0134709 -4.593e-05 0)
(0.0134385 -3.32835e-05 0)
(0.0134134 -2.39113e-05 0)
(0.0133942 -1.70122e-05 0)
(0.0133794 -1.19688e-05 0)
(0.0133681 -8.30922e-06 0)
(0.0133595 -5.67532e-06 0)
(0.013353 -3.79688e-06 0)
(0.013348 -2.47127e-06 0)
(0.0133443 -1.54738e-06 0)
(0.0133414 -9.13165e-07 0)
(0.0133393 -4.86027e-07 0)
(0.0133377 -2.05454e-07 0)
(0.0133365 -2.74303e-08 0)
(0.0133357 7.98037e-08 0)
(0.013335 1.38941e-07 0)
(0.0133345 1.65996e-07 0)
(0.0133342 1.72035e-07 0)
(0.0133339 1.64466e-07 0)
(0.0133337 1.47683e-07 0)
(0.0133336 1.23986e-07 0)
(0.0133335 9.19479e-08 0)
(0.0133334 5.25231e-08 0)
)
;

boundaryField
{
    inlet
    {
        type            fixedValue;
        value           uniform (0.02 0 0);
    }
    outlet
    {
        type            zeroGradient;
    }
    walls
    {
        type            noSlip;
    }
    frontAndBack
    {
        type            empty;
    }
}


// ************************************************************************* //
