/*--------------------------------*- C++ -*----------------------------------*\
| =========                 |                                                 |
| \\      /  F ield         | OpenFOAM: The Open Source CFD Toolbox           |
|  \\    /   O peration     | Version:  2406                                  |
|   \\  /    A nd           | Website:  www.openfoam.com                      |
|    \\/     M anipulation  |                                                 |
\*---------------------------------------------------------------------------*/
FoamFile
{
    version     2.0;
    format      ascii;
    arch        "LSB;label=32;scalar=64";
    class       volVectorField;
    location    "9";
    object      U;
}
// * * * * * * * * * * * * * * * * * * * * * * * * * * * * * * * * * * * * * //

dimensions      [0 1 -1 0 0 0 0];

internalField   nonuniform List<vector> 
20
(
(0.0186771 8.74823e-11 0)
(0.0195336 3.66149e-10 0)
(0.0200936 3.42714e-10 0)
(0.020162 2.44087e-10 0)
(0.0200603 1.74677e-10 0)
(0.0199913 1.74491e-10 0)
(0.0199798 -1.54067e-10 0)
(0.0199911 -4.42234e-10 0)
(0.0200001 9.68883e-11 0)
(0.020002 3.37753e-10 0)
(0.0186771 8.74822e-11 0)
(0.0195336 3.66149e-10 0)
(0.0200936 3.42714e-10 0)
(0.020162 2.44087e-10 0)
(0.0200603 1.74678e-10 0)
(0.0199913 1.7449e-10 0)
(0.0199798 -1.54067e-10 0)
(0.019991 -4.42234e-10 0)
(0.0200001 9.68867e-11 0)
(0.020002 3.37753e-10 0)
)
;

boundaryField
{
    inlet
    {
        type            fixedValue;
        value           uniform (0.02 0 0);
    }
    outlet
    {
        type            zeroGradient;
    }
    walls
    {
        type            noSlip;
    }
    frontAndBack
    {
        type            empty;
    }
}


// ************************************************************************* //
