/*--------------------------------*- C++ -*----------------------------------*\
| =========                 |                                                 |
| \\      /  F ield         | OpenFOAM: The Open Source CFD Toolbox           |
|  \\    /   O peration     | Version:  2406                                  |
|   \\  /    A nd           | Website:  www.openfoam.com                      |
|    \\/     M anipulation  |                                                 |
\*---------------------------------------------------------------------------*/
FoamFile
{
    version     2.0;
    format      ascii;
    arch        "LSB;label=32;scalar=64";
    class       volScalarField;
    location    "2";
    object      p;
}
// * * * * * * * * * * * * * * * * * * * * * * * * * * * * * * * * * * * * * //

dimensions      [0 2 -2 0 0 0 0];

internalField   nonuniform List<scalar> 
160
(
0.00111193
0.00104917
0.000993012
0.000949337
0.000911502
0.000875795
0.000841721
0.000809417
0.000778756
0.000749466
0.000721297
0.000694045
0.000667541
0.00064164
0.000616219
0.000591174
0.000566418
0.000541882
0.000517509
0.000493254
0.000469081
0.000444964
0.000420882
0.000396822
0.000372773
0.00034873
0.000324688
0.000300646
0.000276602
0.000252556
0.000228508
0.000204458
0.000180406
0.000156354
0.0001323
0.000108246
8.41919e-05
6.01372e-05
3.60824e-05
1.20275e-05
0.00100594
0.000988655
0.00096284
0.000933482
0.000902843
0.000871655
0.000840474
0.000809829
0.000780026
0.000751125
0.000723067
0.000695763
0.000669118
0.000643035
0.00061742
0.000592187
0.000567257
0.000542566
0.000518058
0.000493687
0.000469417
0.00044522
0.000421075
0.000396964
0.000372876
0.000348803
0.000324739
0.000300679
0.000276624
0.00025257
0.000228516
0.000204463
0.000180409
0.000156355
0.000132301
0.000108247
8.4192e-05
6.01373e-05
3.60824e-05
1.20274e-05
0.00100594
0.000988655
0.00096284
0.000933482
0.000902843
0.000871655
0.000840474
0.000809829
0.000780026
0.000751125
0.000723067
0.000695763
0.000669117
0.000643035
0.00061742
0.000592187
0.000567257
0.000542566
0.000518058
0.000493687
0.000469417
0.000445221
0.000421075
0.000396964
0.000372876
0.000348803
0.000324739
0.000300679
0.000276624
0.00025257
0.000228516
0.000204463
0.000180409
0.000156355
0.000132301
0.000108247
8.4192e-05
6.01373e-05
3.60824e-05
1.20275e-05
0.00111193
0.00104917
0.000993012
0.000949337
0.000911502
0.000875796
0.000841721
0.000809417
0.000778756
0.000749466
0.000721297
0.000694045
0.000667541
0.00064164
0.000616219
0.000591174
0.000566418
0.000541882
0.000517509
0.000493254
0.000469081
0.000444964
0.000420882
0.000396822
0.000372773
0.00034873
0.000324688
0.000300646
0.000276602
0.000252556
0.000228508
0.000204458
0.000180406
0.000156354
0.0001323
0.000108246
8.41918e-05
6.01372e-05
3.60824e-05
1.20275e-05
)
;

boundaryField
{
    inlet
    {
        type            fixedFluxPressure;
        gradient        uniform 0;
        value           nonuniform List<scalar> 4(0.00111193 0.00100594 0.00100594 0.00111193);
    }
    outlet
    {
        type            fixedValue;
        value           uniform 0;
    }
    walls
    {
        type            zeroGradient;
    }
    frontAndBack
    {
        type            empty;
    }
}


// ************************************************************************* //
