/*--------------------------------*- C++ -*----------------------------------*\
| =========                 |                                                 |
| \\      /  F ield         | OpenFOAM: The Open Source CFD Toolbox           |
|  \\    /   O peration     | Version:  2406                                  |
|   \\  /    A nd           | Website:  www.openfoam.com                      |
|    \\/     M anipulation  |                                                 |
\*---------------------------------------------------------------------------*/
FoamFile
{
    version     2.0;
    format      ascii;
    arch        "LSB;label=32;scalar=64";
    class       surfaceScalarField;
    location    "2";
    object      phi;
}
// * * * * * * * * * * * * * * * * * * * * * * * * * * * * * * * * * * * * * //

dimensions      [0 3 -1 0 0 0 0];

oriented        oriented;

internalField   nonuniform List<scalar> 
276
(
5.34577e-09
1.54229e-10
5.10947e-09
2.36303e-10
4.87806e-09
2.31405e-10
4.66751e-09
2.1055e-10
4.48196e-09
1.85554e-10
4.32337e-09
1.58592e-10
4.19126e-09
1.32112e-10
4.08314e-09
1.08118e-10
3.99559e-09
8.75478e-11
3.92537e-09
7.02234e-11
3.86959e-09
5.57808e-11
3.82572e-09
4.38648e-11
3.7916e-09
3.41228e-11
3.76537e-09
2.6224e-11
3.7455e-09
1.98749e-11
3.73068e-09
1.48229e-11
3.71982e-09
1.08518e-11
3.71205e-09
7.77574e-12
3.70661e-09
5.43423e-12
3.70293e-09
3.68796e-12
3.70051e-09
2.41626e-12
3.69899e-09
1.51537e-12
3.6981e-09
8.97442e-13
3.69761e-09
4.89746e-13
3.69737e-09
2.33877e-13
3.69729e-09
8.43876e-14
3.69729e-09
5.47168e-16
3.69734e-09
-5.21259e-14
3.69741e-09
-6.57494e-14
3.69747e-09
-6.34869e-14
3.69752e-09
-5.43095e-14
3.69757e-09
-4.31116e-14
3.6976e-09
-3.2475e-14
3.69762e-09
-2.3485e-14
3.69764e-09
-1.64196e-14
3.69765e-09
-1.11698e-14
3.69766e-09
-7.41178e-15
3.69766e-09
-4.77659e-15
3.69767e-09
-2.80279e-15
-8.36653e-16
5.65423e-09
-1.92366e-16
5.89053e-09
-1.98761e-16
6.12194e-09
-1.80246e-16
6.33249e-09
-2.02662e-16
6.51804e-09
-2.3203e-16
6.67663e-09
-2.56928e-16
6.80874e-09
-2.81473e-16
6.91686e-09
-3.12121e-16
7.00441e-09
-3.52372e-16
7.07464e-09
-3.76838e-16
7.13042e-09
-3.60402e-16
7.17428e-09
-2.88078e-16
7.2084e-09
-1.57914e-16
7.23463e-09
1.19703e-17
7.2545e-09
1.88148e-16
7.26933e-09
3.19801e-16
7.28018e-09
3.61512e-16
7.28795e-09
2.97337e-16
7.29339e-09
1.46156e-16
7.29707e-09
-4.71624e-17
7.29949e-09
-2.36909e-16
7.30101e-09
-3.91072e-16
7.3019e-09
-4.94716e-16
7.3024e-09
-5.4452e-16
7.30263e-09
-5.70845e-16
7.30272e-09
-6.27972e-16
7.30272e-09
-6.56475e-16
7.30267e-09
-6.02039e-16
7.3026e-09
-5.03365e-16
7.30254e-09
-3.93019e-16
7.30248e-09
-2.46295e-16
7.30244e-09
-6.78496e-17
7.30241e-09
7.95782e-17
7.30238e-09
1.39906e-16
7.30237e-09
1.00469e-16
7.30235e-09
3.60062e-17
7.30235e-09
1.00626e-16
7.30234e-09
2.49557e-16
7.30234e-09
1.17846e-16
3.5697e-17
5.65423e-09
-1.54229e-10
5.89053e-09
-2.36302e-10
6.12194e-09
-2.31405e-10
6.33249e-09
-2.1055e-10
6.51804e-09
-1.85554e-10
6.67663e-09
-1.58592e-10
6.80874e-09
-1.32112e-10
6.91686e-09
-1.08119e-10
7.00441e-09
-8.75486e-11
7.07463e-09
-7.02242e-11
7.13042e-09
-5.57814e-11
7.17428e-09
-4.38651e-11
7.2084e-09
-3.41228e-11
7.23463e-09
-2.62236e-11
7.2545e-09
-1.98743e-11
7.26932e-09
-1.48222e-11
7.28018e-09
-1.08511e-11
7.28795e-09
-7.77532e-12
7.29338e-09
-5.4341e-12
7.29707e-09
-3.68813e-12
7.29949e-09
-2.41667e-12
7.301e-09
-1.51593e-12
7.3019e-09
-8.98079e-13
7.30239e-09
-4.90392e-13
7.30263e-09
-2.34486e-13
7.30271e-09
-8.49656e-14
7.30271e-09
-1.12088e-15
7.30266e-09
5.16189e-14
7.30259e-09
6.54053e-14
7.30253e-09
6.33156e-14
7.30248e-09
5.4308e-14
7.30243e-09
4.32393e-14
7.3024e-09
3.26879e-14
7.30238e-09
2.37425e-14
7.30236e-09
1.66812e-14
7.30235e-09
1.14064e-14
7.30234e-09
7.63062e-15
7.30234e-09
5.05706e-15
7.30233e-09
3.17304e-15
1.26919e-15
5.34577e-09
5.10947e-09
4.87806e-09
4.66751e-09
4.48196e-09
4.32337e-09
4.19126e-09
4.08314e-09
3.99559e-09
3.92536e-09
3.86958e-09
3.82572e-09
3.79159e-09
3.76537e-09
3.7455e-09
3.73067e-09
3.71982e-09
3.71205e-09
3.70661e-09
3.70293e-09
3.70051e-09
3.69899e-09
3.69809e-09
3.6976e-09
3.69737e-09
3.69729e-09
3.69728e-09
3.69734e-09
3.6974e-09
3.69746e-09
3.69752e-09
3.69756e-09
3.69759e-09
3.69762e-09
3.69763e-09
3.69765e-09
3.69765e-09
3.69766e-09
3.69766e-09
)
;

boundaryField
{
    inlet
    {
        type            calculated;
        value           nonuniform List<scalar> 4(-5.5e-09 -5.5e-09 -5.5e-09 -5.5e-09);
    }
    outlet
    {
        type            calculated;
        value           nonuniform List<scalar> 4(3.69767e-09 7.30234e-09 7.30233e-09 3.69766e-09);
    }
    walls
    {
        type            calculated;
        value           uniform 0;
    }
    frontAndBack
    {
        type            empty;
    }
}


// ************************************************************************* //
