/*--------------------------------*- C++ -*----------------------------------*\
| =========                 |                                                 |
| \\      /  F ield         | OpenFOAM: The Open Source CFD Toolbox           |
|  \\    /   O peration     | Version:  2406                                  |
|   \\  /    A nd           | Website:  www.openfoam.com                      |
|    \\/     M anipulation  |                                                 |
\*---------------------------------------------------------------------------*/
FoamFile
{
    version     2.0;
    format      ascii;
    arch        "LSB;label=32;scalar=64";
    class       volVectorField;
    location    "2";
    object      U;
}
// * * * * * * * * * * * * * * * * * * * * * * * * * * * * * * * * * * * * * //

dimensions      [0 1 -1 0 0 0 0];

internalField   nonuniform List<vector> 
160
(
(0.0189987 0.000658029 0)
(0.0187799 0.00126487 0)
(0.0182316 0.00141783 0)
(0.0174121 0.00136984 0)
(0.0166272 0.00123841 0)
(0.0159814 0.00107051 0)
(0.0154577 0.000893685 0)
(0.0150274 0.000726345 0)
(0.014675 0.000577801 0)
(0.0143902 0.000451026 0)
(0.0141631 0.000345728 0)
(0.0139837 0.000260144 0)
(0.0138435 0.000191892 0)
(0.013735 0.000138432 0)
(0.0136522 9.73251e-05 0)
(0.01359 6.635e-05 0)
(0.013544 4.35393e-05 0)
(0.0135107 2.71813e-05 0)
(0.0134871 1.58122e-05 0)
(0.0134709 8.20452e-06 0)
(0.0134601 3.35243e-06 0)
(0.0134532 4.52718e-07 0)
(0.0134489 -1.11699e-06 0)
(0.0134465 -1.82257e-06 0)
(0.0134453 -1.99853e-06 0)
(0.0134448 -1.87285e-06 0)
(0.0134446 -1.59285e-06 0)
(0.0134448 -1.25665e-06 0)
(0.013445 -9.47455e-07 0)
(0.0134452 -6.92475e-07 0)
(0.0134454 -4.91934e-07 0)
(0.0134456 -3.40138e-07 0)
(0.0134458 -2.29321e-07 0)
(0.0134459 -1.50887e-07 0)
(0.0134459 -9.68435e-08 0)
(0.013446 -6.05242e-08 0)
(0.013446 -3.64801e-08 0)
(0.013446 -2.04563e-08 0)
(0.0134461 -8.61943e-09 0)
(0.0134461 2.08174e-09 0)
(0.0201135 0.000651384 0)
(0.020894 0.00123748 0)
(0.021808 0.00139047 0)
(0.0226523 0.00136422 0)
(0.0233817 0.00126688 0)
(0.0240067 0.00113721 0)
(0.0245358 0.000995859 0)
(0.0249737 0.000856564 0)
(0.025329 0.000726842 0)
(0.0256138 0.000609888 0)
(0.0258406 0.000506585 0)
(0.0260197 0.000416644 0)
(0.0261597 0.000339176 0)
(0.0262678 0.000273033 0)
(0.0263502 0.000217025 0)
(0.026412 0.000170038 0)
(0.0264577 0.000131057 0)
(0.0264906 9.9161e-05 0)
(0.0265139 7.34887e-05 0)
(0.0265299 5.32193e-05 0)
(0.0265405 3.75609e-05 0)
(0.0265473 2.57541e-05 0)
(0.0265514 1.70849e-05 0)
(0.0265537 1.09015e-05 0)
(0.0265548 6.62943e-06 0)
(0.0265553 3.78269e-06 0)
(0.0265554 1.97252e-06 0)
(0.0265553 8.95924e-07 0)
(0.026555 2.91162e-07 0)
(0.0265548 -2.25036e-08 0)
(0.0265546 -1.61313e-07 0)
(0.0265544 -2.01606e-07 0)
(0.0265543 -1.92144e-07 0)
(0.0265542 -1.61987e-07 0)
(0.0265541 -1.27039e-07 0)
(0.026554 -9.48865e-08 0)
(0.026554 -6.79855e-08 0)
(0.026554 -4.68181e-08 0)
(0.026554 -3.15007e-08 0)
(0.026554 -1.4969e-08 0)
(0.0201135 -0.000651385 0)
(0.020894 -0.00123748 0)
(0.021808 -0.00139047 0)
(0.0226523 -0.00136423 0)
(0.0233817 -0.00126688 0)
(0.0240067 -0.00113721 0)
(0.0245358 -0.000995863 0)
(0.0249737 -0.000856569 0)
(0.025329 -0.000726848 0)
(0.0256138 -0.000609895 0)
(0.0258406 -0.000506592 0)
(0.0260197 -0.000416649 0)
(0.0261597 -0.000339179 0)
(0.0262678 -0.000273033 0)
(0.0263502 -0.000217022 0)
(0.026412 -0.000170033 0)
(0.0264577 -0.000131052 0)
(0.0264906 -9.91568e-05 0)
(0.0265139 -7.34869e-05 0)
(0.0265299 -5.32203e-05 0)
(0.0265405 -3.75646e-05 0)
(0.0265473 -2.57599e-05 0)
(0.0265514 -1.7092e-05 0)
(0.0265537 -1.09093e-05 0)
(0.0265548 -6.63756e-06 0)
(0.0265553 -3.79123e-06 0)
(0.0265554 -1.981e-06 0)
(0.0265553 -9.03719e-07 0)
(0.026555 -2.9794e-07 0)
(0.0265548 1.72485e-08 0)
(0.0265545 1.57937e-07 0)
(0.0265544 2.00257e-07 0)
(0.0265542 1.92514e-07 0)
(0.0265541 1.63275e-07 0)
(0.0265541 1.2825e-07 0)
(0.026554 9.55927e-08 0)
(0.026554 6.91105e-08 0)
(0.026554 4.94341e-08 0)
(0.0265539 3.36144e-08 0)
(0.0265539 1.68099e-08 0)
(0.0189987 -0.000658028 0)
(0.0187799 -0.00126487 0)
(0.0182316 -0.00141783 0)
(0.0174121 -0.00136984 0)
(0.0166272 -0.00123841 0)
(0.0159814 -0.00107051 0)
(0.0154577 -0.000893687 0)
(0.0150274 -0.000726348 0)
(0.014675 -0.000577805 0)
(0.0143902 -0.000451029 0)
(0.0141631 -0.00034573 0)
(0.0139837 -0.000260143 0)
(0.0138435 -0.000191888 0)
(0.013735 -0.000138427 0)
(0.0136522 -9.73193e-05 0)
(0.01359 -6.63447e-05 0)
(0.013544 -4.35352e-05 0)
(0.0135107 -2.71789e-05 0)
(0.0134871 -1.58115e-05 0)
(0.0134709 -8.20537e-06 0)
(0.0134601 -3.35437e-06 0)
(0.0134532 -4.55255e-07 0)
(0.0134489 1.11427e-06 0)
(0.0134465 1.81999e-06 0)
(0.0134453 1.99645e-06 0)
(0.0134448 1.87163e-06 0)
(0.0134446 1.59266e-06 0)
(0.0134447 1.2574e-06 0)
(0.013445 9.48862e-07 0)
(0.0134452 6.94463e-07 0)
(0.0134454 4.94374e-07 0)
(0.0134456 3.42774e-07 0)
(0.0134457 2.31914e-07 0)
(0.0134458 1.53302e-07 0)
(0.0134459 9.9051e-08 0)
(0.013446 6.25755e-08 0)
(0.013446 3.84689e-08 0)
(0.013446 2.2569e-08 0)
(0.013446 1.10358e-08 0)
(0.013446 6.96239e-10 0)
)
;

boundaryField
{
    inlet
    {
        type            fixedValue;
        value           uniform (0.02 0 0);
    }
    outlet
    {
        type            zeroGradient;
    }
    walls
    {
        type            noSlip;
    }
    frontAndBack
    {
        type            empty;
    }
}


// ************************************************************************* //
