/*--------------------------------*- C++ -*----------------------------------*\
| =========                 |                                                 |
| \\      /  F ield         | OpenFOAM: The Open Source CFD Toolbox           |
|  \\    /   O peration     | Version:  2406                                  |
|   \\  /    A nd           | Website:  www.openfoam.com                      |
|    \\/     M anipulation  |                                                 |
\*---------------------------------------------------------------------------*/
FoamFile
{
    version     2.0;
    format      ascii;
    arch        "LSB;label=32;scalar=64";
    class       volVectorField;
    location    "2";
    object      U;
}
// * * * * * * * * * * * * * * * * * * * * * * * * * * * * * * * * * * * * * //

dimensions      [0 1 -1 0 0 0 0];

internalField   nonuniform List<vector> 
20
(
(0.0186562 6.26945e-09 0)
(0.0194929 -8.80586e-09 0)
(0.0202105 7.33344e-09 0)
(0.0202475 -3.75509e-08 0)
(0.0200164 -6.56272e-08 0)
(0.0199426 2.49135e-08 0)
(0.0199825 6.75885e-08 0)
(0.0200078 3.4498e-08 0)
(0.0200043 -1.88044e-08 0)
(0.0199988 -1.08295e-08 0)
(0.0186562 6.26968e-09 0)
(0.0194929 -8.80464e-09 0)
(0.0202104 7.33241e-09 0)
(0.0202474 -3.75544e-08 0)
(0.0200164 -6.56331e-08 0)
(0.0199426 2.4907e-08 0)
(0.0199825 6.75822e-08 0)
(0.0200077 3.44936e-08 0)
(0.0200043 -1.88064e-08 0)
(0.0199989 -1.08302e-08 0)
)
;

boundaryField
{
    inlet
    {
        type            fixedValue;
        value           uniform (0.02 0 0);
    }
    outlet
    {
        type            zeroGradient;
    }
    walls
    {
        type            noSlip;
    }
    frontAndBack
    {
        type            empty;
    }
}


// ************************************************************************* //
