/*--------------------------------*- C++ -*----------------------------------*\
| =========                 |                                                 |
| \\      /  F ield         | OpenFOAM: The Open Source CFD Toolbox           |
|  \\    /   O peration     | Version:  2406                                  |
|   \\  /    A nd           | Website:  www.openfoam.com                      |
|    \\/     M anipulation  |                                                 |
\*---------------------------------------------------------------------------*/
FoamFile
{
    version     2.0;
    format      ascii;
    arch        "LSB;label=32;scalar=64";
    class       volScalarField;
    location    "1";
    object      p;
}
// * * * * * * * * * * * * * * * * * * * * * * * * * * * * * * * * * * * * * //

dimensions      [0 2 -2 0 0 0 0];

internalField   nonuniform List<scalar> 
160
(
0.00114042
0.00107767
0.00102152
0.000977859
0.000940092
0.000904584
0.000870874
0.000839079
0.000809022
0.000780361
0.000752758
0.000725927
0.000699636
0.000673708
0.00064801
0.000622454
0.000596979
0.000571548
0.000546139
0.000520739
0.000495342
0.000469945
0.000444547
0.000419148
0.000393748
0.000368347
0.000342946
0.000317544
0.000292141
0.000266738
0.000241335
0.000215932
0.000190529
0.000165125
0.000139721
0.000114317
8.89137e-05
6.35099e-05
3.8106e-05
1.27019e-05
0.00103438
0.00101709
0.000991264
0.000961848
0.000931158
0.000900052
0.000869143
0.000838919
0.00080962
0.000781263
0.000753726
0.000726834
0.000700417
0.00067434
0.0006485
0.00062282
0.000597245
0.000571737
0.00054627
0.000520829
0.000495403
0.000469986
0.000444574
0.000419165
0.000393759
0.000368354
0.00034295
0.000317546
0.000292143
0.000266739
0.000241336
0.000215933
0.000190529
0.000165125
0.000139721
0.000114318
8.89141e-05
6.35105e-05
3.81069e-05
1.27026e-05
0.00103438
0.00101709
0.000991264
0.000961848
0.000931158
0.000900051
0.000869142
0.000838918
0.000809619
0.000781263
0.000753726
0.000726834
0.000700417
0.00067434
0.0006485
0.000622821
0.000597246
0.000571738
0.000546271
0.000520829
0.000495403
0.000469986
0.000444574
0.000419165
0.000393759
0.000368354
0.00034295
0.000317546
0.000292143
0.000266739
0.000241336
0.000215932
0.000190529
0.000165125
0.000139721
0.000114318
8.8914e-05
6.35105e-05
3.81069e-05
1.27026e-05
0.00114042
0.00107767
0.00102152
0.000977859
0.000940092
0.000904584
0.000870874
0.000839079
0.000809022
0.000780361
0.000752759
0.000725928
0.000699637
0.000673708
0.000648011
0.000622455
0.00059698
0.000571549
0.000546139
0.000520739
0.000495342
0.000469945
0.000444547
0.000419148
0.000393748
0.000368347
0.000342946
0.000317544
0.000292141
0.000266738
0.000241335
0.000215932
0.000190528
0.000165125
0.000139721
0.000114317
8.89137e-05
6.351e-05
3.81061e-05
1.27019e-05
)
;

boundaryField
{
    inlet
    {
        type            fixedFluxPressure;
        gradient        uniform 0;
        value           nonuniform List<scalar> 4(0.00114042 0.00103438 0.00103438 0.00114042);
    }
    outlet
    {
        type            fixedValue;
        value           uniform 0;
    }
    walls
    {
        type            zeroGradient;
    }
    frontAndBack
    {
        type            empty;
    }
}


// ************************************************************************* //
