/*--------------------------------*- C++ -*----------------------------------*\
| =========                 |                                                 |
| \\      /  F ield         | OpenFOAM: The Open Source CFD Toolbox           |
|  \\    /   O peration     | Version:  2406                                  |
|   \\  /    A nd           | Website:  www.openfoam.com                      |
|    \\/     M anipulation  |                                                 |
\*---------------------------------------------------------------------------*/
FoamFile
{
    version     2.0;
    format      ascii;
    arch        "LSB;label=32;scalar=64";
    class       surfaceScalarField;
    location    "1";
    object      phi;
}
// * * * * * * * * * * * * * * * * * * * * * * * * * * * * * * * * * * * * * //

dimensions      [0 3 -1 0 0 0 0];

oriented        oriented;

internalField   nonuniform List<scalar> 
276
(
5.34568e-09
1.5432e-10
5.1091e-09
2.36575e-10
4.87766e-09
2.31448e-10
4.66813e-09
2.0953e-10
4.4858e-09
1.82323e-10
4.33386e-09
1.51945e-10
4.21258e-09
1.21276e-10
4.11943e-09
9.31483e-11
4.05031e-09
6.91198e-11
4.00068e-09
4.96367e-11
3.96618e-09
3.44958e-11
3.94298e-09
2.32008e-11
3.92787e-09
1.51109e-11
3.91833e-09
9.53668e-12
3.9125e-09
5.83166e-12
3.90905e-09
3.45183e-12
3.90708e-09
1.97385e-12
3.90599e-09
1.08667e-12
3.90542e-09
5.72468e-13
3.90513e-09
2.85375e-13
3.905e-09
1.31778e-13
3.90495e-09
5.38913e-14
3.90493e-09
1.74216e-14
3.90493e-09
7.66801e-16
3.90493e-09
-6.13917e-15
3.90494e-09
-8.73544e-15
3.90495e-09
-8.07106e-15
3.90496e-09
-6.49469e-15
3.90496e-09
-4.6962e-15
3.90497e-09
-2.89161e-15
3.90497e-09
-1.24044e-15
3.90497e-09
3.36346e-17
3.90497e-09
1.00249e-15
3.90496e-09
1.62344e-15
3.90496e-09
2.09318e-15
3.90496e-09
2.39507e-15
3.90496e-09
3.53192e-15
3.90495e-09
6.49262e-15
3.90494e-09
9.89534e-15
2.60215e-14
5.65432e-09
3.03327e-17
5.8909e-09
-2.52649e-16
6.12234e-09
-9.62415e-16
6.33188e-09
-2.10389e-15
6.5142e-09
-3.09802e-15
6.66615e-09
-3.21235e-15
6.78743e-09
-2.08476e-15
6.88058e-09
-4.35011e-17
6.94969e-09
1.92937e-15
6.99933e-09
3.01487e-15
7.03382e-09
2.80238e-15
7.05702e-09
1.76598e-15
7.07213e-09
7.55769e-16
7.08167e-09
2.01197e-16
7.0875e-09
1.59007e-16
7.09095e-09
1.79045e-16
7.09292e-09
-9.59059e-17
7.09401e-09
-9.76936e-16
7.09459e-09
-1.95302e-15
7.09487e-09
-2.69068e-15
7.09501e-09
-2.91427e-15
7.09506e-09
-2.59951e-15
7.09508e-09
-2.01829e-15
7.09509e-09
-1.36537e-15
7.09508e-09
-7.43211e-16
7.09507e-09
-3.25136e-16
7.09506e-09
-1.37094e-16
7.09506e-09
-1.10927e-16
7.09505e-09
-1.38713e-16
7.09505e-09
-1.20874e-16
7.09505e-09
1.30934e-17
7.09505e-09
2.69934e-16
7.09505e-09
5.88508e-16
7.09505e-09
9.19962e-16
7.09505e-09
1.23322e-15
7.09505e-09
1.49993e-15
7.09505e-09
1.63114e-15
7.09506e-09
1.63767e-15
7.09506e-09
1.5466e-15
1.94779e-15
5.65432e-09
-1.5432e-10
5.8909e-09
-2.36576e-10
6.12235e-09
-2.31451e-10
6.33188e-09
-2.09536e-10
6.51421e-09
-1.82331e-10
6.66616e-09
-1.51951e-10
6.78743e-09
-1.21278e-10
6.88058e-09
-9.31464e-11
6.9497e-09
-6.91156e-11
6.99933e-09
-4.96317e-11
7.03383e-09
-3.44915e-11
7.05703e-09
-2.31978e-11
7.07213e-09
-1.5109e-11
7.08167e-09
-9.53516e-12
7.0875e-09
-5.83002e-12
7.09095e-09
-3.45017e-12
7.09292e-09
-1.97271e-12
7.09401e-09
-1.08661e-12
7.09458e-09
-5.7364e-13
7.09487e-09
-2.87488e-13
7.095e-09
-1.3425e-13
7.09505e-09
-5.60967e-14
7.09507e-09
-1.89062e-14
7.09507e-09
-1.9238e-15
7.09506e-09
5.63242e-15
7.09505e-09
8.5826e-15
7.09505e-09
7.98674e-15
7.09504e-09
6.33667e-15
7.09504e-09
4.49417e-15
7.09503e-09
2.80138e-15
7.09503e-09
1.44555e-15
7.09503e-09
5.03913e-16
7.09503e-09
4.09868e-18
7.09503e-09
-1.88741e-16
7.09504e-09
-3.6332e-16
7.09504e-09
-5.38489e-16
7.09504e-09
-1.64333e-15
7.09505e-09
-4.54549e-15
7.09506e-09
-7.82415e-15
-2.31157e-14
5.34568e-09
5.1091e-09
4.87765e-09
4.66812e-09
4.48578e-09
4.33383e-09
4.21256e-09
4.11941e-09
4.0503e-09
4.00066e-09
3.96617e-09
3.94297e-09
3.92787e-09
3.91833e-09
3.9125e-09
3.90905e-09
3.90708e-09
3.90599e-09
3.90542e-09
3.90513e-09
3.905e-09
3.90494e-09
3.90492e-09
3.90492e-09
3.90492e-09
3.90493e-09
3.90494e-09
3.90495e-09
3.90495e-09
3.90495e-09
3.90495e-09
3.90496e-09
3.90496e-09
3.90495e-09
3.90495e-09
3.90495e-09
3.90495e-09
3.90495e-09
3.90494e-09
)
;

boundaryField
{
    inlet
    {
        type            calculated;
        value           nonuniform List<scalar> 4(-5.5e-09 -5.5e-09 -5.5e-09 -5.5e-09);
    }
    outlet
    {
        type            calculated;
        value           nonuniform List<scalar> 4(3.90491e-09 7.09509e-09 7.09508e-09 3.90492e-09);
    }
    walls
    {
        type            calculated;
        value           uniform 0;
    }
    frontAndBack
    {
        type            empty;
    }
}


// ************************************************************************* //
