/*--------------------------------*- C++ -*----------------------------------*\
| =========                 |                                                 |
| \\      /  F ield         | OpenFOAM: The Open Source CFD Toolbox           |
|  \\    /   O peration     | Version:  2406                                  |
|   \\  /    A nd           | Website:  www.openfoam.com                      |
|    \\/     M anipulation  |                                                 |
\*---------------------------------------------------------------------------*/
FoamFile
{
    version     2.0;
    format      ascii;
    arch        "LSB;label=32;scalar=64";
    class       volVectorField;
    location    "1";
    object      U;
}
// * * * * * * * * * * * * * * * * * * * * * * * * * * * * * * * * * * * * * //

dimensions      [0 1 -1 0 0 0 0];

internalField   nonuniform List<vector> 
20
(
(0.0180929 -5.41728e-08 0)
(0.0195937 6.87447e-08 0)
(0.0204704 1.17223e-07 0)
(0.0201817 -1.61503e-07 0)
(0.0199564 -1.10578e-07 0)
(0.0199705 1.06726e-07 0)
(0.0199992 1.19932e-07 0)
(0.0200054 2.69142e-08 0)
(0.0199994 -6.2176e-08 0)
(0.0199993 -4.758e-09 0)
(0.0180931 -5.41697e-08 0)
(0.0195935 6.87391e-08 0)
(0.0204698 1.17209e-07 0)
(0.0201815 -1.61518e-07 0)
(0.0199566 -1.10595e-07 0)
(0.0199707 1.06715e-07 0)
(0.0199991 1.19926e-07 0)
(0.0200053 2.6913e-08 0)
(0.0199996 -6.21755e-08 0)
(0.0199994 -4.75849e-09 0)
)
;

boundaryField
{
    inlet
    {
        type            fixedValue;
        value           uniform (0.02 0 0);
    }
    outlet
    {
        type            zeroGradient;
    }
    walls
    {
        type            noSlip;
    }
    frontAndBack
    {
        type            empty;
    }
}


// ************************************************************************* //
