/*--------------------------------*- C++ -*----------------------------------*\
| =========                 |                                                 |
| \\      /  F ield         | OpenFOAM: The Open Source CFD Toolbox           |
|  \\    /   O peration     | Version:  2406                                  |
|   \\  /    A nd           | Website:  www.openfoam.com                      |
|    \\/     M anipulation  |                                                 |
\*---------------------------------------------------------------------------*/
FoamFile
{
    version     2.0;
    format      ascii;
    arch        "LSB;label=32;scalar=64";
    class       volVectorField;
    location    "1";
    object      U;
}
// * * * * * * * * * * * * * * * * * * * * * * * * * * * * * * * * * * * * * //

dimensions      [0 1 -1 0 0 0 0];

internalField   nonuniform List<vector> 
160
(
(0.0189988 0.00065846 0)
(0.0187787 0.00126631 0)
(0.0182276 0.00141643 0)
(0.0174091 0.00135668 0)
(0.016633 0.00120215 0)
(0.0160054 0.00100164 0)
(0.0155127 0.000788787 0)
(0.0151296 0.000590276 0)
(0.0148391 0.00042221 0)
(0.0146266 0.000289948 0)
(0.0144764 0.000191644 0)
(0.0143739 0.000122042 0)
(0.0143062 7.49145e-05 0)
(0.0142628 4.43183e-05 0)
(0.0142359 2.5219e-05 0)
(0.0142198 1.37347e-05 0)
(0.0142104 7.0879e-06 0)
(0.0142051 3.39904e-06 0)
(0.0142023 1.45027e-06 0)
(0.0142009 4.83375e-07 0)
(0.0142002 4.49364e-08 0)
(0.0141999 -1.25128e-07 0)
(0.0141998 -1.68914e-07 0)
(0.0141997 -1.58555e-07 0)
(0.0141997 -1.29478e-07 0)
(0.0141998 -9.77367e-08 0)
(0.0141998 -7.01769e-08 0)
(0.0141998 -4.74308e-08 0)
(0.0141999 -2.84939e-08 0)
(0.0141999 -1.26794e-08 0)
(0.0141999 -2.9954e-11 0)
(0.0141999 9.22209e-09 0)
(0.0141999 1.47862e-08 0)
(0.0141999 1.76228e-08 0)
(0.0141999 2.0025e-08 0)
(0.0141999 2.45529e-08 0)
(0.0141999 4.17524e-08 0)
(0.0141998 7.58808e-08 0)
(0.0141998 1.32862e-07 0)
(0.0141997 2.76992e-07 0)
(0.0201137 0.000651765 0)
(0.020894 0.001239 0)
(0.0218061 0.0013914 0)
(0.0226501 0.0013598 0)
(0.0233769 0.00124972 0)
(0.0239871 0.00109842 0)
(0.0244838 0.000927255 0)
(0.0248732 0.000753734 0)
(0.0251669 0.000591089 0)
(0.0253801 0.000447678 0)
(0.0255291 0.000327621 0)
(0.0256302 0.000231784 0)
(0.0256967 0.000158671 0)
(0.0257392 0.000105239 0)
(0.0257655 6.77185e-05 0)
(0.0257811 4.23191e-05 0)
(0.0257902 2.57006e-05 0)
(0.0257952 1.51699e-05 0)
(0.0257979 8.69689e-06 0)
(0.0257993 4.83364e-06 0)
(0.0257999 2.59479e-06 0)
(0.0258002 1.33648e-06 0)
(0.0258003 6.52631e-07 0)
(0.0258003 2.95937e-07 0)
(0.0258003 1.18878e-07 0)
(0.0258003 3.59838e-08 0)
(0.0258002 -7.33853e-10 0)
(0.0258002 -1.50896e-08 0)
(0.0258002 -1.81516e-08 0)
(0.0258002 -1.50527e-08 0)
(0.0258002 -8.62254e-09 0)
(0.0258002 -7.30052e-10 0)
(0.0258002 6.77174e-09 0)
(0.0258002 1.2468e-08 0)
(0.0258002 1.71256e-08 0)
(0.0258002 1.88233e-08 0)
(0.0258002 2.04201e-08 0)
(0.0258002 3.55496e-08 0)
(0.0258002 3.68784e-08 0)
(0.0258003 1.3007e-07 0)
(0.0201137 -0.000651764 0)
(0.020894 -0.001239 0)
(0.0218061 -0.00139142 0)
(0.0226501 -0.00135984 0)
(0.0233769 -0.00124977 0)
(0.0239871 -0.00109847 0)
(0.0244838 -0.000927287 0)
(0.0248732 -0.000753739 0)
(0.0251669 -0.000591068 0)
(0.0253801 -0.000447644 0)
(0.0255291 -0.00032759 0)
(0.0256302 -0.000231766 0)
(0.0256967 -0.000158664 0)
(0.0257392 -0.000105236 0)
(0.0257655 -6.77117e-05 0)
(0.0257811 -4.23096e-05 0)
(0.0257902 -2.56939e-05 0)
(0.0257952 -1.51726e-05 0)
(0.0257979 -8.71309e-06 0)
(0.0257993 -4.86257e-06 0)
(0.0257999 -2.63152e-06 0)
(0.0258002 -1.37402e-06 0)
(0.0258003 -6.84653e-07 0)
(0.0258003 -3.18897e-07 0)
(0.0258002 -1.32858e-07 0)
(0.0258002 -4.37054e-08 0)
(0.0258002 -4.18657e-09 0)
(0.0258002 1.04229e-08 0)
(0.0258001 1.2887e-08 0)
(0.0258001 9.97296e-09 0)
(0.0258001 5.49061e-09 0)
(0.0258001 1.41559e-09 0)
(0.0258001 -9.98006e-10 0)
(0.0258001 -1.23789e-09 0)
(0.0258001 -9.40272e-10 0)
(0.0258001 1.12484e-09 0)
(0.0258001 1.31263e-09 0)
(0.0258002 -1.31312e-08 0)
(0.0258002 -1.48395e-08 0)
(0.0258003 -1.01738e-07 0)
(0.0189988 -0.000658459 0)
(0.0187787 -0.00126631 0)
(0.0182276 -0.00141645 0)
(0.0174091 -0.00135672 0)
(0.016633 -0.0012022 0)
(0.0160053 -0.00100167 0)
(0.0155126 -0.000788776 0)
(0.0151295 -0.000590226 0)
(0.0148391 -0.000422136 0)
(0.0146265 -0.000289873 0)
(0.0144764 -0.000191583 0)
(0.0143739 -0.000122 0)
(0.0143062 -7.48899e-05 0)
(0.0142628 -4.43059e-05 0)
(0.0142359 -2.52149e-05 0)
(0.0142198 -1.37367e-05 0)
(0.0142104 -7.09498e-06 0)
(0.0142051 -3.4101e-06 0)
(0.0142023 -1.46295e-06 0)
(0.0142008 -4.9451e-07 0)
(0.0142001 -5.18205e-08 0)
(0.0141998 1.23656e-07 0)
(0.0141997 1.72241e-07 0)
(0.0141997 1.65157e-07 0)
(0.0141997 1.37129e-07 0)
(0.0141997 1.04812e-07 0)
(0.0141998 7.60643e-08 0)
(0.0141998 5.23887e-08 0)
(0.0141998 3.33566e-08 0)
(0.0141998 1.84594e-08 0)
(0.0141998 7.50324e-09 0)
(0.0141998 2.02892e-10 0)
(0.0141998 -3.90104e-09 0)
(0.0141998 -6.18851e-09 0)
(0.0141998 -9.01399e-09 0)
(0.0141998 -1.46712e-08 0)
(0.0141998 -3.30663e-08 0)
(0.0141998 -6.74192e-08 0)
(0.0141998 -1.22759e-07 0)
(0.0141997 -2.62257e-07 0)
)
;

boundaryField
{
    inlet
    {
        type            fixedValue;
        value           uniform (0.02 0 0);
    }
    outlet
    {
        type            zeroGradient;
    }
    walls
    {
        type            noSlip;
    }
    frontAndBack
    {
        type            empty;
    }
}


// ************************************************************************* //
