/*--------------------------------*- C++ -*----------------------------------*\
| =========                 |                                                 |
| \\      /  F ield         | OpenFOAM: The Open Source CFD Toolbox           |
|  \\    /   O peration     | Version:  2406                                  |
|   \\  /    A nd           | Website:  www.openfoam.com                      |
|    \\/     M anipulation  |                                                 |
\*---------------------------------------------------------------------------*/
FoamFile
{
    version     2.0;
    format      ascii;
    arch        "LSB;label=32;scalar=64";
    class       surfaceScalarField;
    location    "0.0006";
    object      phi;
}
// * * * * * * * * * * * * * * * * * * * * * * * * * * * * * * * * * * * * * //

dimensions      [0 3 -1 0 0 0 0];

oriented        oriented;

internalField   nonuniform List<scalar> 
9850
(
1.01741e-09
-1.0173e-09
5.66381e-09
-4.64638e-09
1.10087e-08
-5.34499e-09
1.56796e-08
-4.67071e-09
1.94516e-08
-3.77198e-09
2.23118e-08
-2.86011e-09
2.43859e-08
-2.07411e-09
2.57798e-08
-1.39378e-09
2.67321e-08
-9.52206e-10
2.73369e-08
-6.04904e-10
2.77111e-08
-3.74239e-10
2.79756e-08
-2.64521e-10
2.82444e-08
-2.68932e-10
2.85231e-08
-2.78756e-10
2.88193e-08
-2.96038e-10
2.92128e-08
-3.93634e-10
2.97075e-08
-4.94793e-10
3.02089e-08
-5.01474e-10
3.06805e-08
-4.71735e-10
3.11412e-08
-4.60702e-10
3.15364e-08
-3.95185e-10
3.17651e-08
-2.28834e-10
3.17934e-08
-2.84111e-11
3.16304e-08
1.6309e-10
3.12309e-08
3.99554e-10
3.05059e-08
7.25034e-10
2.94024e-08
1.10349e-09
2.79109e-08
1.49146e-09
2.60117e-08
1.89926e-09
2.36767e-08
2.33517e-09
2.09385e-08
2.73819e-09
1.7924e-08
3.01458e-09
1.48007e-08
3.1233e-09
1.17082e-08
3.09246e-09
8.74863e-09
2.95965e-09
6.01924e-09
2.72954e-09
3.61543e-09
2.40401e-09
1.58594e-09
2.02964e-09
-1.03726e-10
1.68976e-09
-1.54864e-09
1.44507e-09
-2.83916e-09
1.29073e-09
-4.01506e-09
1.17607e-09
-5.07701e-09
1.06206e-09
-6.03345e-09
9.56546e-10
-6.9321e-09
8.98801e-10
-7.84929e-09
9.17321e-10
-8.85544e-09
1.00621e-09
-9.99261e-09
1.13722e-09
-1.12804e-08
1.28788e-09
-1.27351e-08
1.45499e-09
-1.43783e-08
1.64336e-09
-1.62245e-08
1.84628e-09
-1.82635e-08
2.0391e-09
-2.04547e-08
2.19138e-09
-2.27398e-08
2.28535e-09
-2.5064e-08
2.32427e-09
-2.73885e-08
2.32446e-09
-2.96866e-08
2.29798e-09
-3.1926e-08
2.23919e-09
-3.4051e-08
2.12475e-09
-3.59768e-08
1.92557e-09
-3.76031e-08
1.62602e-09
-3.88392e-08
1.23583e-09
-3.96302e-08
7.90838e-10
-3.99706e-08
3.40349e-10
-3.99012e-08
-6.93985e-11
-3.94914e-08
-4.09788e-10
-3.88149e-08
-6.76489e-10
-3.79298e-08
-8.85062e-10
-3.68727e-08
-1.05696e-09
-3.56707e-08
-1.20185e-09
-3.43643e-08
-1.30623e-09
-3.30267e-08
-1.33761e-09
-3.17617e-08
-1.26502e-09
-3.06774e-08
-1.08436e-09
-2.9847e-08
-8.30358e-10
-2.92819e-08
-5.65071e-10
-2.89321e-08
-3.49721e-10
-2.87121e-08
-2.19963e-10
-2.85327e-08
-1.79425e-10
-2.83252e-08
-2.07567e-10
-2.80571e-08
-2.68181e-10
-2.77436e-08
-3.1354e-10
-2.74505e-08
-2.93016e-10
-2.72786e-08
-1.71956e-10
-2.73297e-08
5.1054e-11
-2.76741e-08
3.44294e-10
-2.8331e-08
6.56743e-10
-2.9268e-08
9.36979e-10
-3.04326e-08
1.16467e-09
-3.17961e-08
1.36359e-09
-3.33468e-08
1.55082e-09
-3.50963e-08
1.74955e-09
-3.71766e-08
2.08031e-09
-3.98317e-08
2.65518e-09
-4.33738e-08
3.54207e-09
-4.83453e-08
4.9714e-09
-5.55903e-08
7.24507e-09
-6.61493e-08
1.0559e-08
2.27897e-08
4.99668e-09
-6.01394e-09
1.46519e-08
-1.43014e-08
2.3782e-08
-1.44751e-08
3.10952e-08
-1.19839e-08
3.65429e-08
-9.21955e-09
4.03219e-08
-6.63932e-09
4.28044e-08
-4.55633e-09
4.43193e-08
-2.90881e-09
4.51036e-08
-1.73652e-09
4.54222e-08
-9.23505e-10
4.54886e-08
-4.40895e-10
4.53909e-08
-1.66636e-10
4.51882e-08
-6.62851e-11
4.50226e-08
-1.13454e-10
4.49356e-08
-2.08956e-10
4.48357e-08
-2.93909e-10
4.47213e-08
-3.80569e-10
4.46595e-08
-4.396e-10
4.45956e-08
-4.07964e-10
4.44079e-08
-2.73325e-10
4.40682e-08
-5.55665e-11
4.35909e-08
2.48365e-10
4.2912e-08
6.50378e-10
4.19267e-08
1.14821e-09
4.05922e-08
1.73385e-09
3.89159e-08
2.40123e-09
3.68808e-08
3.13841e-09
3.44479e-08
3.92418e-09
3.16214e-08
4.72554e-09
2.84695e-08
5.48693e-09
2.50786e-08
6.12892e-09
2.15204e-08
6.57276e-09
1.78733e-08
6.77039e-09
1.42538e-08
6.71184e-09
1.07991e-08
6.41426e-09
7.61174e-09
5.91681e-09
4.7294e-09
5.28619e-09
2.14644e-09
4.61241e-09
-1.46619e-10
3.98264e-09
-2.15137e-09
3.44966e-09
-3.88296e-09
3.02219e-09
-5.39179e-09
2.68484e-09
-6.75639e-09
2.42669e-09
-8.05311e-09
2.25339e-09
-9.3315e-09
2.17733e-09
-1.06174e-08
2.20328e-09
-1.19364e-08
2.32537e-09
-1.33346e-08
2.53542e-09
-1.48761e-08
2.82939e-09
-1.66231e-08
3.20188e-09
-1.86135e-08
3.6335e-09
-2.08522e-08
4.08464e-09
-2.33177e-08
4.50441e-09
-2.59759e-08
4.84938e-09
-2.87892e-08
5.09853e-09
-3.17183e-08
5.25332e-09
-3.47174e-08
5.32364e-09
-3.77289e-08
5.30974e-09
-4.0682e-08
5.19262e-09
-4.34959e-08
4.9391e-09
-4.6087e-08
4.51709e-09
-4.83779e-08
3.91723e-09
-5.03034e-08
3.1616e-09
-5.18156e-08
2.30326e-09
-5.28875e-08
1.41247e-09
-5.35153e-08
5.5839e-10
-5.37181e-08
-2.07096e-10
-5.35365e-08
-8.58289e-10
-5.30274e-08
-1.39422e-09
-5.22579e-08
-1.82656e-09
-5.12982e-08
-2.1617e-09
-5.02171e-08
-2.38748e-09
-4.90786e-08
-2.47635e-09
-4.79368e-08
-2.40701e-09
-4.68298e-08
-2.19159e-09
-4.57736e-08
-1.88661e-09
-4.47631e-08
-1.57563e-09
-4.37782e-08
-1.33467e-09
-4.27947e-08
-1.20354e-09
-4.17971e-08
-1.1771e-09
-4.07941e-08
-1.21061e-09
-3.98325e-08
-1.22966e-09
-3.89978e-08
-1.14804e-09
-3.83914e-08
-8.99174e-10
-3.80961e-08
-4.67046e-10
-3.81524e-08
1.07321e-10
-3.85543e-08
7.46283e-10
-3.92591e-08
1.36156e-09
-4.01989e-08
1.87689e-09
-4.12965e-08
2.26247e-09
-4.24973e-08
2.56445e-09
-4.3806e-08
2.85952e-09
-4.52609e-08
3.20444e-09
-4.69377e-08
3.75728e-09
-4.89648e-08
4.68223e-09
-5.14409e-08
6.01797e-09
-5.44265e-08
7.9571e-09
-5.77681e-08
1.0587e-08
-6.22787e-08
1.50697e-08
2.77534e-08
7.09829e-09
-1.31121e-08
1.92154e-08
-2.64184e-08
2.94489e-08
-2.47088e-08
3.67725e-08
-1.93073e-08
4.16798e-08
-1.41267e-08
4.48029e-08
-9.76243e-09
4.65177e-08
-6.27109e-09
4.73296e-08
-3.72055e-09
4.75131e-08
-1.92026e-09
4.73362e-08
-7.46432e-10
4.68742e-08
2.09527e-11
4.63051e-08
4.02425e-10
4.57187e-08
5.20015e-10
4.50619e-08
5.43268e-10
4.43615e-08
4.91391e-10
4.36911e-08
3.76379e-10
4.30106e-08
2.99909e-10
4.22434e-08
3.27293e-10
4.13934e-08
4.41961e-10
4.04762e-08
6.43858e-10
3.94442e-08
9.76371e-10
3.82369e-08
1.4556e-09
3.68356e-08
2.05175e-09
3.52387e-08
2.74515e-09
3.34259e-08
3.54661e-09
3.13721e-08
4.45497e-09
2.90794e-08
5.43115e-09
2.65819e-08
6.42173e-09
2.39273e-08
7.38026e-09
2.11629e-08
8.25139e-09
1.83376e-08
8.9542e-09
1.55081e-08
9.40234e-09
1.27359e-08
9.54283e-09
1.00749e-08
9.37305e-09
7.56083e-09
8.92853e-09
5.21132e-09
8.2666e-09
3.03639e-09
7.46142e-09
1.04883e-09
6.60019e-09
-7.36384e-10
5.76802e-09
-2.31364e-09
5.02708e-09
-3.69791e-09
4.40664e-09
-4.92428e-09
3.91137e-09
-6.03579e-09
3.53829e-09
-7.07063e-09
3.2883e-09
-8.06007e-09
3.16689e-09
-9.03553e-09
3.17891e-09
-1.00348e-08
3.32476e-09
-1.10992e-08
3.60007e-09
-1.22655e-08
3.99581e-09
-1.35589e-08
4.49554e-09
-1.4996e-08
5.07081e-09
-1.65907e-08
5.67954e-09
-1.83573e-08
6.27125e-09
-2.03055e-08
6.79762e-09
-2.24293e-08
7.22229e-09
-2.47002e-08
7.52408e-09
-2.70685e-08
7.69174e-09
-2.94736e-08
7.71451e-09
-3.18562e-08
7.5749e-09
-3.41667e-08
7.24921e-09
-3.63658e-08
6.716e-09
-3.84183e-08
5.96945e-09
-4.02866e-08
5.0298e-09
-4.19299e-08
3.94648e-09
-4.33089e-08
2.79142e-09
-4.43951e-08
1.64455e-09
-4.51787e-08
5.7645e-10
-4.56716e-08
-3.65304e-10
-4.59056e-08
-1.16019e-09
-4.59257e-08
-1.80649e-09
-4.57821e-08
-2.30528e-09
-4.55218e-08
-2.64787e-09
-4.51799e-08
-2.81838e-09
-4.47743e-08
-2.81269e-09
-4.43056e-08
-2.66031e-09
-4.37627e-08
-2.42947e-09
-4.31321e-08
-2.20626e-09
-4.24077e-08
-2.05907e-09
-4.16007e-08
-2.01053e-09
-4.07475e-08
-2.03027e-09
-3.99129e-08
-2.0452e-09
-3.91827e-08
-1.95975e-09
-3.86453e-08
-1.68535e-09
-3.83682e-08
-1.17616e-09
-3.83812e-08
-4.54046e-10
-3.86698e-08
3.95861e-10
-3.91795e-08
1.25604e-09
-3.98303e-08
2.01255e-09
-4.05396e-08
2.58645e-09
-4.12362e-08
2.95925e-09
-4.18519e-08
3.18024e-09
-4.23322e-08
3.34002e-09
-4.26399e-08
3.51229e-09
-4.26822e-08
3.79962e-09
-4.22712e-08
4.2712e-09
-4.1096e-08
4.84287e-09
-3.87754e-08
5.63661e-09
-3.53751e-08
7.18661e-09
-3.15326e-08
1.12274e-08
1.80226e-08
7.93514e-09
-2.10472e-08
2.08188e-08
-3.9302e-08
3.09672e-08
-3.48571e-08
3.7705e-08
-2.60451e-08
4.1858e-08
-1.82799e-08
4.41767e-08
-1.20811e-08
4.52559e-08
-7.35049e-09
4.55481e-08
-4.01265e-09
4.52855e-08
-1.65767e-09
4.471e-08
-1.71114e-10
4.40017e-08
7.29355e-10
4.31631e-08
1.2411e-09
4.22215e-08
1.46128e-09
4.12816e-08
1.48326e-09
4.03533e-08
1.41985e-09
3.93681e-08
1.36133e-09
3.8325e-08
1.34305e-09
3.72591e-08
1.3931e-09
3.61414e-08
1.55943e-09
3.4912e-08
1.87327e-09
3.35564e-08
2.33196e-09
3.20869e-08
2.92491e-09
3.04871e-08
3.65143e-09
2.8723e-08
4.50932e-09
2.67901e-08
5.4794e-09
2.47185e-08
6.52643e-09
2.25375e-08
7.61197e-09
2.02659e-08
8.69338e-09
1.79323e-08
9.71391e-09
1.55905e-08
1.05932e-08
1.33012e-08
1.12435e-08
1.11046e-08
1.1599e-08
9.0145e-09
1.1633e-08
7.03489e-09
1.13527e-08
5.17494e-09
1.07884e-08
3.44792e-09
9.99365e-09
1.86162e-09
9.04777e-09
4.1477e-10
8.04702e-09
-8.97913e-10
7.08065e-09
-2.07987e-09
6.20905e-09
-3.13296e-09
5.45983e-09
-4.06319e-09
4.84167e-09
-4.88618e-09
4.36131e-09
-5.62859e-09
4.03074e-09
-6.32474e-09
3.86306e-09
-7.0107e-09
3.86484e-09
-7.71847e-09
4.03243e-09
-8.47253e-09
4.35402e-09
-9.29032e-09
4.81353e-09
-1.01865e-08
5.39172e-09
-1.11789e-08
6.06311e-09
-1.2291e-08
6.79164e-09
-1.35491e-08
7.52937e-09
-1.49725e-08
8.22109e-09
-1.65631e-08
8.8131e-09
-1.83004e-08
9.26155e-09
-2.01444e-08
9.53594e-09
-2.20464e-08
9.61656e-09
-2.39598e-08
9.48844e-09
-2.58481e-08
9.13767e-09
-2.76855e-08
8.55347e-09
-2.94522e-08
7.73605e-09
-3.11288e-08
6.70633e-09
-3.26942e-08
5.51183e-09
-3.41272e-08
4.22431e-09
-3.54109e-08
2.92805e-09
-3.65371e-08
1.70254e-09
-3.7509e-08
6.06475e-10
-3.83402e-08
-3.28995e-10
-3.90524e-08
-1.09436e-09
-3.96695e-08
-1.68817e-09
-4.02106e-08
-2.10686e-09
-4.06814e-08
-2.34761e-09
-4.10712e-08
-2.42299e-09
-4.13573e-08
-2.37438e-09
-4.15178e-08
-2.26903e-09
-4.15464e-08
-2.1777e-09
-4.14601e-08
-2.1453e-09
-4.12991e-08
-2.17148e-09
-4.11214e-08
-2.20786e-09
-4.09967e-08
-2.16982e-09
-4.09951e-08
-1.96108e-09
-4.11703e-08
-1.50996e-09
-4.15408e-08
-8.05506e-10
-4.20815e-08
8.66326e-11
-4.27274e-08
1.04185e-09
-4.33918e-08
1.92043e-09
-4.3984e-08
2.60473e-09
-4.44174e-08
3.01993e-09
-4.46259e-08
3.16767e-09
-4.45451e-08
3.09947e-09
-4.40774e-08
2.87239e-09
-4.31602e-08
2.59509e-09
-4.16481e-08
2.28739e-09
-3.93148e-08
1.93785e-09
-3.60402e-08
1.56835e-09
-3.1749e-08
1.34559e-09
-2.67869e-08
2.22441e-09
-2.04311e-08
4.87151e-09
7.28271e-09
7.83149e-09
-2.88784e-08
2.03732e-08
-5.18439e-08
2.98471e-08
-4.43309e-08
3.57368e-08
-3.1935e-08
3.91372e-08
-2.16802e-08
4.08367e-08
-1.37807e-08
4.14518e-08
-7.96556e-09
4.1317e-08
-3.878e-09
4.08039e-08
-1.14444e-09
4.00015e-08
6.31186e-10
3.9033e-08
1.69768e-09
3.80161e-08
2.25821e-09
3.69842e-08
2.4931e-09
3.59158e-08
2.55148e-09
3.48195e-08
2.51632e-09
3.37285e-08
2.45239e-09
3.26374e-08
2.43391e-09
3.15096e-08
2.521e-09
3.03282e-08
2.74083e-09
2.90949e-08
3.10648e-09
2.77911e-08
3.63556e-09
2.63814e-08
4.33476e-09
2.48483e-08
5.18451e-09
2.32029e-08
6.15462e-09
2.14607e-08
7.22146e-09
1.9628e-08
8.35923e-09
1.77166e-08
9.52335e-09
1.57615e-08
1.06486e-08
1.38148e-08
1.16606e-08
1.19224e-08
1.24858e-08
1.01085e-08
1.30576e-08
8.38207e-09
1.33255e-08
6.7524e-09
1.32628e-08
5.23296e-09
1.28722e-08
3.83304e-09
1.21885e-08
2.54946e-09
1.12774e-08
1.36954e-09
1.02278e-08
2.82752e-10
9.1338e-09
-7.10733e-10
8.07414e-09
-1.60239e-09
7.10078e-09
-2.38561e-09
6.24316e-09
-3.0648e-09
5.52091e-09
-3.65696e-09
4.95349e-09
-4.1869e-09
4.56075e-09
-4.68099e-09
4.35727e-09
-5.16336e-09
4.34732e-09
-5.65514e-09
4.52427e-09
-6.17539e-09
4.87431e-09
-6.74265e-09
5.38086e-09
-7.37665e-09
6.02578e-09
-8.09931e-09
6.78579e-09
-8.93402e-09
7.62628e-09
-9.90216e-09
8.49741e-09
-1.10177e-08
9.33655e-09
-1.2282e-08
1.00773e-08
-1.36814e-08
1.06608e-08
-1.51891e-08
1.10435e-08
-1.67709e-08
1.11982e-08
-1.83921e-08
1.11097e-08
-2.00238e-08
1.07694e-08
-2.1645e-08
1.01746e-08
-2.32423e-08
9.33334e-09
-2.48077e-08
8.27178e-09
-2.63359e-08
7.04004e-09
-2.7822e-08
5.71034e-09
-2.92604e-08
4.36636e-09
-3.06452e-08
3.0872e-09
-3.19719e-08
1.9331e-09
-3.32412e-08
9.40284e-10
-3.4462e-08
1.26476e-10
-3.56507e-08
-4.99528e-10
-3.68234e-08
-9.34334e-10
-3.7984e-08
-1.18709e-09
-3.91164e-08
-1.29078e-09
-4.01867e-08
-1.30419e-09
-4.11594e-08
-1.29651e-09
-4.2016e-08
-1.3212e-09
-4.2766e-08
-1.39535e-09
-4.34436e-08
-1.49394e-09
-4.40964e-08
-1.55509e-09
-4.4774e-08
-1.49212e-09
-4.55158e-08
-1.21916e-09
-4.63343e-08
-6.91388e-10
-4.72027e-08
6.29484e-11
-4.80592e-08
9.43184e-10
-4.88215e-08
1.80424e-09
-4.94007e-08
2.49966e-09
-4.97168e-08
2.92083e-09
-4.97013e-08
3.00442e-09
-4.93093e-08
2.7756e-09
-4.84976e-08
2.28779e-09
-4.72082e-08
1.58308e-09
-4.54061e-08
7.93002e-10
-4.301e-08
-1.08734e-10
-4.00246e-08
-1.04736e-09
-3.65218e-08
-1.93431e-09
-3.27093e-08
-2.46685e-09
-2.87164e-08
-1.76825e-09
-2.37344e-08
-1.1046e-10
6.9112e-10
7.16995e-09
-3.60483e-08
1.86161e-08
-6.32901e-08
2.70646e-08
-5.27795e-08
3.2168e-08
-3.70381e-08
3.49674e-08
-2.44797e-08
3.62002e-08
-1.50134e-08
3.64623e-08
-8.22739e-09
3.60617e-08
-3.4777e-09
3.52575e-08
-3.40202e-10
3.42381e-08
1.65076e-09
3.31129e-08
2.82276e-09
3.1937e-08
3.43423e-09
3.07534e-08
3.67677e-09
2.96137e-08
3.69122e-09
2.85287e-08
3.60131e-09
2.7473e-08
3.50823e-09
2.64295e-08
3.47745e-09
2.53944e-08
3.55594e-09
2.43557e-08
3.77949e-09
2.32882e-08
4.17404e-09
2.21683e-08
4.75544e-09
2.09834e-08
5.51949e-09
1.97262e-08
6.44169e-09
1.83872e-08
7.49365e-09
1.69613e-08
8.64743e-09
1.54605e-08
9.85991e-09
1.39173e-08
1.10664e-08
1.23706e-08
1.21954e-08
1.08495e-08
1.31819e-08
9.37127e-09
1.39641e-08
7.9507e-09
1.44781e-08
6.60734e-09
1.46688e-08
5.35954e-09
1.45107e-08
4.2133e-09
1.40186e-08
3.15894e-09
1.32429e-08
2.17992e-09
1.22564e-08
1.26619e-09
1.11416e-08
4.20834e-10
9.97923e-09
-3.44503e-10
8.83956e-09
-1.02034e-09
7.77668e-09
-1.60703e-09
6.82987e-09
-2.11501e-09
6.02887e-09
-2.56002e-09
5.39851e-09
-2.95884e-09
4.95959e-09
-3.32801e-09
4.72643e-09
-3.68492e-09
4.70414e-09
-4.04883e-09
4.88806e-09
-4.44075e-09
5.26619e-09
-4.88251e-09
5.82269e-09
-5.39552e-09
6.53885e-09
-5.99964e-09
7.38991e-09
-6.71223e-09
8.33884e-09
-7.54689e-09
9.33207e-09
-8.51179e-09
1.03015e-08
-9.60787e-09
1.11735e-08
-1.08278e-08
1.18807e-08
-1.2156e-08
1.23717e-08
-1.35713e-08
1.26134e-08
-1.50495e-08
1.25879e-08
-1.65684e-08
1.22882e-08
-1.81104e-08
1.17167e-08
-1.96656e-08
1.08885e-08
-2.12317e-08
9.83794e-09
-2.28132e-08
8.62143e-09
-2.44169e-08
7.31399e-09
-2.60473e-08
5.99676e-09
-2.77029e-08
4.74289e-09
-2.93759e-08
3.60617e-09
-3.10559e-08
2.6204e-09
-3.27362e-08
1.80683e-09
-3.44168e-08
1.18104e-09
-3.61014e-08
7.50282e-10
-3.779e-08
5.01438e-10
-3.94716e-08
3.9071e-10
-4.11247e-08
3.48841e-10
-4.27257e-08
3.04391e-10
-4.42589e-08
2.12005e-10
-4.57226e-08
6.82813e-11
-4.71269e-08
-8.96733e-11
-4.84874e-08
-1.9465e-10
-4.98155e-08
-1.63979e-10
-5.11073e-08
7.26779e-11
-5.23307e-08
5.31927e-10
-5.34206e-08
1.15284e-09
-5.42977e-08
1.82024e-09
-5.48951e-08
2.40149e-09
-5.51541e-08
2.75861e-09
-5.50266e-08
2.79315e-09
-5.45064e-08
2.48414e-09
-5.35731e-08
1.84226e-09
-5.22393e-08
9.54042e-10
-5.05119e-08
-1.44477e-10
-4.83983e-08
-1.32066e-09
-4.59532e-08
-2.55383e-09
-4.32965e-08
-3.70392e-09
-4.06017e-08
-4.62912e-09
-3.80619e-08
-5.00668e-09
-3.55528e-08
-4.27745e-09
-3.25707e-08
-3.09258e-09
-2.76773e-09
6.16198e-09
-4.22102e-08
1.61834e-08
-7.33113e-08
2.35716e-08
-6.01679e-08
2.79727e-08
-4.1439e-08
3.03225e-08
-2.68295e-08
3.12819e-08
-1.59729e-08
3.12488e-08
-8.19421e-09
3.06375e-08
-2.86628e-09
2.96153e-08
6.8192e-10
2.83711e-08
2.89486e-09
2.70118e-08
4.18231e-09
2.56391e-08
4.80718e-09
2.43169e-08
4.99854e-09
2.30753e-08
4.93303e-09
2.19333e-08
4.74366e-09
2.09022e-08
4.53925e-09
1.99715e-08
4.40807e-09
1.91097e-08
4.41772e-09
1.82847e-08
4.60462e-09
1.74723e-08
4.98629e-09
1.66506e-08
5.57703e-09
1.5795e-08
6.37519e-09
1.48835e-08
7.35326e-09
1.39057e-08
8.47144e-09
1.28663e-08
9.68675e-09
1.17811e-08
1.09452e-08
1.06677e-08
1.218e-08
9.54135e-09
1.33218e-08
8.41809e-09
1.43052e-08
7.31935e-09
1.50628e-08
6.26999e-09
1.55275e-08
5.28872e-09
1.56502e-08
4.37952e-09
1.542e-08
3.5323e-09
1.48658e-08
2.73261e-09
1.40426e-08
1.97274e-09
1.30164e-08
1.25618e-09
1.18583e-08
5.93496e-10
1.06419e-08
-6.06865e-12
9.43905e-09
-5.40411e-10
8.31101e-09
-1.01451e-09
7.3041e-09
-1.4366e-09
6.45112e-09
-1.81511e-09
5.77712e-09
-2.15908e-09
5.30355e-09
-2.48047e-09
5.04778e-09
-2.79582e-09
5.01945e-09
-3.12547e-09
5.21772e-09
-3.49126e-09
5.632e-09
-3.91399e-09
6.24537e-09
-4.41187e-09
7.03658e-09
-4.99995e-09
7.97777e-09
-5.69022e-09
9.02892e-09
-6.4918e-09
1.01336e-08
-7.41079e-09
1.12205e-08
-8.44963e-09
1.22123e-08
-9.60615e-09
1.30372e-08
-1.08731e-08
1.36386e-08
-1.2238e-08
1.39784e-08
-1.36854e-08
1.40354e-08
-1.51986e-08
1.38016e-08
-1.67637e-08
1.32819e-08
-1.83727e-08
1.24976e-08
-2.00249e-08
1.14902e-08
-2.17265e-08
1.03231e-08
-2.34865e-08
9.07409e-09
-2.53127e-08
7.82302e-09
-2.72064e-08
6.63675e-09
-2.91628e-08
5.56265e-09
-3.11735e-08
4.63119e-09
-3.32306e-08
3.86391e-09
-3.53266e-08
3.27705e-09
-3.74512e-08
2.87491e-09
-3.95873e-08
2.6374e-09
-4.17112e-08
2.51452e-09
-4.38e-08
2.4374e-09
-4.58374e-08
2.34171e-09
-4.78153e-08
2.18976e-09
-4.9728e-08
1.98091e-09
-5.15688e-08
1.75092e-09
-5.3327e-08
1.56354e-09
-5.49825e-08
1.49146e-09
-5.64951e-08
1.58521e-09
-5.78029e-08
1.83974e-09
-5.88311e-08
2.18093e-09
-5.95068e-08
2.49587e-09
-5.9787e-08
2.68152e-09
-5.96571e-08
2.6286e-09
-5.91028e-08
2.23861e-09
-5.81888e-08
1.57e-09
-5.69325e-08
5.85979e-10
-5.5365e-08
-6.13605e-10
-5.36103e-08
-1.8992e-09
-5.16442e-08
-3.28673e-09
-4.96494e-08
-4.54857e-09
-4.77021e-08
-5.65112e-09
-4.59599e-08
-6.37118e-09
-4.44447e-08
-6.52191e-09
-4.30403e-08
-5.68202e-09
-4.15048e-08
-4.62811e-09
-4.43552e-09
5.07384e-09
-4.7284e-08
1.36034e-08
-8.1841e-08
1.99385e-08
-6.65029e-08
2.37805e-08
-4.52811e-08
2.58134e-08
-2.88623e-08
2.65697e-08
-1.67291e-08
2.63733e-08
-7.99798e-09
2.55259e-08
-2.01891e-09
2.42443e-08
1.96365e-09
2.27266e-08
4.41233e-09
2.11277e-08
5.78114e-09
1.95461e-08
6.38905e-09
1.8051e-08
6.4936e-09
1.66872e-08
6.29673e-09
1.54757e-08
5.95518e-09
1.44296e-08
5.58537e-09
1.35521e-08
5.2857e-09
1.28254e-08
5.14426e-09
1.22135e-08
5.21635e-09
1.16722e-08
5.52769e-09
1.1159e-08
6.09028e-09
1.06415e-08
6.89273e-09
1.00997e-08
7.89492e-09
9.52353e-09
9.04748e-09
8.90712e-09
1.03033e-08
8.24668e-09
1.16059e-08
7.54517e-09
1.28815e-08
6.81648e-09
1.40504e-08
6.08301e-09
1.50387e-08
5.36718e-09
1.57788e-08
4.68314e-09
1.62115e-08
4.03332e-09
1.63e-08
3.41109e-09
1.60421e-08
2.80761e-09
1.54693e-08
2.2182e-09
1.46321e-08
1.6448e-09
1.35899e-08
1.09368e-09
1.24094e-08
5.71e-10
1.11645e-08
7.97007e-11
9.93033e-09
-3.80465e-10
8.77133e-09
-8.10852e-10
7.73467e-09
-1.21245e-09
6.85277e-09
-1.5869e-09
6.1515e-09
-1.9394e-09
5.65597e-09
-2.28085e-09
5.38926e-09
-2.62763e-09
5.3663e-09
-2.99901e-09
5.58912e-09
-3.41417e-09
6.04708e-09
-3.89005e-09
6.72111e-09
-4.44061e-09
7.587e-09
-5.07694e-09
8.61402e-09
-5.80777e-09
9.75972e-09
-6.63985e-09
1.09656e-08
-7.57804e-09
1.21586e-08
-8.62509e-09
1.32592e-08
-9.78117e-09
1.41932e-08
-1.10434e-08
1.49008e-08
-1.2406e-08
1.53411e-08
-1.38608e-08
1.54902e-08
-1.53989e-08
1.53397e-08
-1.70129e-08
1.4896e-08
-1.86999e-08
1.41846e-08
-2.04624e-08
1.32528e-08
-2.23074e-08
1.21681e-08
-2.42423e-08
1.10091e-08
-2.62699e-08
9.8506e-09
-2.83856e-08
8.75245e-09
-3.05793e-08
7.75629e-09
-3.28398e-08
6.89166e-09
-3.51588e-08
6.18289e-09
-3.75293e-08
5.64753e-09
-3.99391e-08
5.28473e-09
-4.23655e-08
5.06373e-09
-4.4777e-08
4.9259e-09
-4.7143e-08
4.8033e-09
-4.94425e-08
4.64117e-09
-5.16633e-08
4.41052e-09
-5.37928e-08
4.11035e-09
-5.58109e-08
3.76905e-09
-5.76896e-08
3.44223e-09
-5.9389e-08
3.19093e-09
-6.08489e-08
3.0451e-09
-6.19948e-08
2.98568e-09
-6.27675e-08
2.95363e-09
-6.31314e-08
2.8597e-09
-6.30636e-08
2.61365e-09
-6.25914e-08
2.15643e-09
-6.17704e-08
1.41768e-09
-6.06305e-08
4.30123e-10
-5.92965e-08
-7.47963e-10
-5.77878e-08
-2.12232e-09
-5.62136e-08
-3.47334e-09
-5.46382e-08
-4.86193e-09
-5.31691e-08
-6.01757e-09
-5.18528e-08
-6.96745e-09
-5.07595e-08
-7.46437e-09
-4.98655e-08
-7.41586e-09
-4.90745e-08
-6.47297e-09
-4.83197e-08
-5.38282e-09
-5.19627e-09
4.07575e-09
-5.13596e-08
1.1117e-08
-8.88823e-08
1.64908e-08
-7.18766e-08
1.97975e-08
-4.85876e-08
2.15866e-08
-3.06516e-08
2.21479e-08
-1.72905e-08
2.1827e-08
-7.6769e-09
2.07911e-08
-9.83156e-10
1.93162e-08
3.43829e-09
1.75575e-08
6.17111e-09
1.56909e-08
7.64795e-09
1.38502e-08
8.22956e-09
1.21295e-08
8.21413e-09
1.05998e-08
7.82644e-09
9.29966e-09
7.25543e-09
8.238e-09
6.647e-09
7.40296e-09
6.12053e-09
6.76917e-09
5.77796e-09
6.30276e-09
5.68293e-09
5.96412e-09
5.86641e-09
5.71256e-09
6.34171e-09
5.51079e-09
7.09448e-09
5.32517e-09
8.08067e-09
5.12562e-09
9.24713e-09
4.88995e-09
1.0539e-08
4.60994e-09
1.18858e-08
4.29228e-09
1.31991e-08
3.95189e-09
1.43909e-08
3.60247e-09
1.53883e-08
3.25089e-09
1.61303e-08
2.89713e-09
1.65651e-08
2.53747e-09
1.66595e-08
2.16791e-09
1.64117e-08
1.78647e-09
1.58508e-08
1.3933e-09
1.50252e-08
9.89534e-10
1.39936e-08
5.76352e-10
1.28225e-08
1.5521e-10
1.15857e-08
-2.71317e-10
1.0357e-08
-6.99174e-10
9.19933e-09
-1.12354e-09
8.15909e-09
-1.54058e-09
7.26974e-09
-1.94963e-09
6.56052e-09
-2.35511e-09
6.06151e-09
-2.7668e-09
5.80102e-09
-3.19831e-09
5.79779e-09
-3.66455e-09
6.05521e-09
-4.17941e-09
6.56175e-09
-4.75459e-09
7.29616e-09
-5.39946e-09
8.23183e-09
-6.12129e-09
9.33585e-09
-6.92546e-09
1.05639e-08
-7.81561e-09
1.18557e-08
-8.79401e-09
1.31369e-08
-9.86215e-09
1.43273e-08
-1.10213e-08
1.53523e-08
-1.22726e-08
1.61522e-08
-1.3617e-08
1.66855e-08
-1.50545e-08
1.69278e-08
-1.65848e-08
1.68701e-08
-1.82087e-08
1.65199e-08
-1.99293e-08
1.59052e-08
-2.17529e-08
1.50766e-08
-2.36879e-08
1.41032e-08
-2.57403e-08
1.30616e-08
-2.79104e-08
1.20208e-08
-3.01903e-08
1.10324e-08
-3.25658e-08
1.01317e-08
-3.50193e-08
9.34524e-09
-3.75334e-08
8.69706e-09
-4.00896e-08
8.20386e-09
-4.26658e-08
7.86102e-09
-4.52347e-08
7.63253e-09
-4.77658e-08
7.45704e-09
-5.02312e-08
7.26865e-09
-5.26075e-08
7.01757e-09
-5.48753e-08
6.67837e-09
-5.70139e-08
6.24895e-09
-5.89958e-08
5.75105e-09
-6.07835e-08
5.2299e-09
-6.23284e-08
4.73585e-09
-6.35711e-08
4.28783e-09
-6.44447e-08
3.8593e-09
-6.49042e-08
3.41307e-09
-6.49565e-08
2.912e-09
-6.46147e-08
2.27183e-09
-6.38971e-08
1.43881e-09
-6.29428e-08
4.63289e-10
-6.17711e-08
-7.41621e-10
-6.04824e-08
-2.03675e-09
-5.91859e-08
-3.41889e-09
-5.78802e-08
-4.77904e-09
-5.67111e-08
-6.03116e-09
-5.56334e-08
-7.09528e-09
-5.47612e-08
-7.83962e-09
-5.40438e-08
-8.18187e-09
-5.34907e-08
-7.96919e-09
-5.30291e-08
-6.93451e-09
-5.26246e-08
-5.78734e-09
-5.54384e-09
3.12067e-09
-5.448e-08
8.69557e-09
-9.44572e-08
1.30429e-08
-7.6224e-08
1.57819e-08
-5.13266e-08
1.72685e-08
-3.2138e-08
1.7688e-08
-1.771e-08
1.72527e-08
-7.24177e-09
1.61309e-08
1.38633e-10
1.45391e-08
5.03008e-09
1.2656e-08
8.05412e-09
1.06384e-08
9.66535e-09
8.62755e-09
1.02406e-08
6.73886e-09
1.01028e-08
5.06184e-09
9.50336e-09
3.65247e-09
8.66464e-09
2.52966e-09
7.76982e-09
1.68335e-09
6.96695e-09
1.08845e-09
6.37281e-09
7.1423e-10
6.05703e-09
5.24164e-10
6.05641e-09
4.7389e-10
6.39207e-09
5.13669e-10
7.05489e-09
5.95952e-10
7.99842e-09
6.84565e-10
9.1584e-09
7.59284e-10
1.04642e-08
8.13256e-10
1.18319e-08
8.4643e-10
1.3166e-08
8.59458e-10
1.43779e-08
8.50528e-10
1.53972e-08
8.15659e-10
1.61651e-08
7.50831e-10
1.66299e-08
6.5349e-10
1.67569e-08
5.2215e-10
1.65431e-08
3.54756e-10
1.60181e-08
1.47643e-10
1.52323e-08
-1.03512e-10
1.42448e-08
-4.01e-10
1.312e-08
-7.42777e-10
1.19275e-08
-1.12244e-09
1.07367e-08
-1.53149e-09
9.60837e-09
-1.9622e-09
8.5898e-09
-2.40991e-09
7.71747e-09
-2.87416e-09
7.0248e-09
-3.35869e-09
6.5461e-09
-3.87042e-09
6.31277e-09
-4.41759e-09
6.34489e-09
-5.008e-09
6.64553e-09
-5.64823e-09
7.20195e-09
-6.3435e-09
7.99149e-09
-7.09763e-09
8.98603e-09
-7.91267e-09
1.01509e-08
-8.78865e-09
1.14398e-08
-9.72424e-09
1.27912e-08
-1.07183e-08
1.4131e-08
-1.17717e-08
1.53807e-08
-1.28883e-08
1.6469e-08
-1.4075e-08
1.7339e-08
-1.53407e-08
1.79511e-08
-1.66952e-08
1.82822e-08
-1.81488e-08
1.83237e-08
-1.97123e-08
1.80835e-08
-2.13964e-08
1.75894e-08
-2.32106e-08
1.68908e-08
-2.51614e-08
1.6054e-08
-2.72497e-08
1.51498e-08
-2.947e-08
1.4241e-08
-3.18115e-08
1.33738e-08
-3.42596e-08
1.25798e-08
-3.67974e-08
1.18829e-08
-3.94029e-08
1.13027e-08
-4.20465e-08
1.08476e-08
-4.46903e-08
1.05048e-08
-4.72934e-08
1.02356e-08
-4.98217e-08
9.98535e-09
-5.22512e-08
9.69823e-09
-5.45628e-08
9.32926e-09
-5.67342e-08
8.84987e-09
-5.87388e-08
8.25359e-09
-6.05473e-08
7.55955e-09
-6.21219e-08
6.80451e-09
-6.34108e-08
6.02485e-09
-6.43621e-08
5.23916e-09
-6.49405e-08
4.43774e-09
-6.5124e-08
3.59664e-09
-6.49217e-08
2.70971e-09
-6.43961e-08
1.7463e-09
-6.35951e-08
6.37851e-10
-6.25997e-08
-5.32074e-10
-6.15153e-08
-1.82607e-09
-6.03757e-08
-3.17621e-09
-5.93092e-08
-4.48533e-09
-5.82768e-08
-5.81138e-09
-5.74014e-08
-6.90673e-09
-5.66368e-08
-7.85985e-09
-5.60217e-08
-8.45455e-09
-5.555e-08
-8.65351e-09
-5.52165e-08
-8.30252e-09
-5.49531e-08
-7.19787e-09
-5.47328e-08
-6.0076e-09
-5.67336e-09
2.21335e-09
-5.66934e-08
6.29506e-09
-9.85387e-08
9.49782e-09
-7.94267e-08
1.15323e-08
-5.33609e-08
1.25805e-08
-3.31863e-08
1.28187e-08
-1.79483e-08
1.22941e-08
-6.71707e-09
1.11986e-08
1.23398e-09
9.62628e-09
6.60223e-09
7.75577e-09
9.92462e-09
5.7403e-09
1.16808e-08
3.71889e-09
1.22621e-08
1.8138e-09
1.20076e-08
1.08422e-10
1.12087e-08
-1.34685e-09
1.012e-08
-2.52056e-09
8.94356e-09
-3.3989e-09
7.84524e-09
-3.98826e-09
6.96212e-09
-4.31554e-09
6.38439e-09
-4.42528e-09
6.16621e-09
-4.37072e-09
6.33752e-09
-4.20246e-09
6.88665e-09
-3.96089e-09
7.75682e-09
-3.6746e-09
8.87208e-09
-3.36386e-09
1.01536e-08
-3.04485e-09
1.1513e-08
-2.73195e-09
1.28531e-08
-2.43788e-09
1.40838e-08
-2.17272e-09
1.5132e-08
-1.94353e-09
1.59359e-08
-1.75516e-09
1.64415e-08
-1.61231e-09
1.66141e-08
-1.52146e-09
1.64523e-08
-1.49127e-09
1.59879e-08
-1.53089e-09
1.52719e-08
-1.64713e-09
1.43611e-08
-1.8419e-09
1.33148e-08
-2.11123e-09
1.21968e-08
-2.44679e-09
1.10722e-08
-2.83889e-09
1.00005e-08
-3.27954e-09
9.03052e-09
-3.76423e-09
8.2022e-09
-4.29189e-09
7.55248e-09
-4.86364e-09
7.11785e-09
-5.48098e-09
6.93008e-09
-6.14465e-09
7.00853e-09
-6.85459e-09
7.35547e-09
-7.61029e-09
7.95769e-09
-8.41059e-09
8.79187e-09
-9.25282e-09
9.82832e-09
-1.01321e-08
1.10302e-08
-1.10418e-08
1.23495e-08
-1.19759e-08
1.37254e-08
-1.29317e-08
1.50868e-08
-1.39112e-08
1.63603e-08
-1.49221e-08
1.74799e-08
-1.59768e-08
1.83935e-08
-1.70914e-08
1.90656e-08
-1.82849e-08
1.94756e-08
-1.95783e-08
1.9617e-08
-2.09927e-08
1.94979e-08
-2.25474e-08
1.91441e-08
-2.4257e-08
1.86005e-08
-2.6129e-08
1.79258e-08
-2.81613e-08
1.7182e-08
-3.03429e-08
1.64225e-08
-3.2656e-08
1.56868e-08
-3.50796e-08
1.50033e-08
-3.75914e-08
1.43947e-08
-4.0166e-08
1.38773e-08
-4.27704e-08
1.3452e-08
-4.53621e-08
1.30964e-08
-4.78943e-08
1.27678e-08
-5.03257e-08
1.24168e-08
-5.26278e-08
1.20004e-08
-5.47816e-08
1.1483e-08
-5.6767e-08
1.08354e-08
-5.85576e-08
1.00442e-08
-6.01236e-08
9.12545e-09
-6.14342e-08
8.11511e-09
-6.24507e-08
7.04135e-09
-6.31288e-08
5.91732e-09
-6.34509e-08
4.75987e-09
-6.34361e-08
3.58181e-09
-6.30987e-08
2.37242e-09
-6.24817e-08
1.12929e-09
-6.16966e-08
-1.47252e-10
-6.07769e-08
-1.45177e-09
-5.9842e-08
-2.76098e-09
-5.89148e-08
-4.10328e-09
-5.80546e-08
-5.34544e-09
-5.73159e-08
-6.5501e-09
-5.66536e-08
-7.56902e-09
-5.61248e-08
-8.38856e-09
-5.57119e-08
-8.86747e-09
-5.54338e-08
-8.93156e-09
-5.52723e-08
-8.46381e-09
-5.51671e-08
-7.303e-09
-5.51545e-08
-6.02016e-09
-5.60931e-09
1.29182e-09
-5.79851e-08
3.70687e-09
-1.00954e-07
5.56895e-09
-8.12889e-08
6.6935e-09
-5.44853e-08
7.22232e-09
-3.3715e-08
7.21457e-09
-1.79407e-08
6.68043e-09
-6.183e-09
5.69051e-09
2.22384e-09
4.32593e-09
7.96686e-09
2.6933e-09
1.15573e-08
9.12658e-10
1.34614e-08
-9.12498e-10
1.40873e-08
-2.67989e-09
1.37749e-08
-4.29887e-09
1.28277e-08
-5.70202e-09
1.15232e-08
-6.84368e-09
1.00851e-08
-7.70152e-09
8.70302e-09
-8.27905e-09
7.53976e-09
-8.6025e-09
6.70803e-09
-8.71119e-09
6.27489e-09
-8.64569e-09
6.27189e-09
-8.44126e-09
6.68221e-09
-8.12766e-09
7.44324e-09
-7.73135e-09
8.47574e-09
-7.27745e-09
9.69965e-09
-6.79097e-09
1.10265e-08
-6.29476e-09
1.23568e-08
-5.80649e-09
1.35955e-08
-5.3382e-09
1.46638e-08
-4.89901e-09
1.54967e-08
-4.49906e-09
1.60416e-08
-4.15149e-09
1.62666e-08
-3.87156e-09
1.61724e-08
-3.67388e-09
1.57903e-08
-3.57003e-09
1.51681e-08
-3.5671e-09
1.43581e-08
-3.6668e-09
1.34144e-08
-3.86554e-09
1.23954e-08
-4.15586e-09
1.13624e-08
-4.52909e-09
1.03738e-08
-4.97782e-09
9.47931e-09
-5.4966e-09
8.72099e-09
-6.08116e-09
8.13703e-09
-6.72698e-09
7.76368e-09
-7.42849e-09
7.63163e-09
-8.17933e-09
7.7594e-09
-8.9728e-09
8.14899e-09
-9.80197e-09
8.78692e-09
-1.06588e-08
9.64881e-09
-1.15336e-08
1.07031e-08
-1.24149e-08
1.19116e-08
-1.3292e-08
1.32267e-08
-1.41571e-08
1.45905e-08
-1.50077e-08
1.59374e-08
-1.58481e-08
1.72007e-08
-1.66895e-08
1.83212e-08
-1.75493e-08
1.92532e-08
-1.84506e-08
1.99669e-08
-1.94206e-08
2.04458e-08
-2.04885e-08
2.0685e-08
-2.16822e-08
2.06917e-08
-2.30263e-08
2.04882e-08
-2.45389e-08
2.0113e-08
-2.62295e-08
1.96165e-08
-2.8098e-08
1.90505e-08
-3.01339e-08
1.84584e-08
-3.23177e-08
1.78705e-08
-3.46225e-08
1.73082e-08
-3.70163e-08
1.67885e-08
-3.94624e-08
1.63233e-08
-4.19203e-08
1.59098e-08
-4.43481e-08
1.55242e-08
-4.67058e-08
1.51254e-08
-4.89577e-08
1.46686e-08
-5.10726e-08
1.41152e-08
-5.3024e-08
1.34343e-08
-5.47903e-08
1.26016e-08
-5.63516e-08
1.16053e-08
-5.76816e-08
1.04553e-08
-5.87482e-08
9.18158e-09
-5.9524e-08
7.81716e-09
-5.99911e-08
6.38428e-09
-6.01424e-08
4.91111e-09
-6.00033e-08