/*--------------------------------*- C++ -*----------------------------------*\
| =========                 |                                                 |
| \\      /  F ield         | OpenFOAM: The Open Source CFD Toolbox           |
|  \\    /   O peration     | Version:  2406                                  |
|   \\  /    A nd           | Website:  www.openfoam.com                      |
|    \\/     M anipulation  |                                                 |
\*---------------------------------------------------------------------------*/
FoamFile
{
    version     2.0;
    format      ascii;
    arch        "LSB;label=32;scalar=64";
    class       volVectorField;
    location    "0.0006";
    object      U;
}
// * * * * * * * * * * * * * * * * * * * * * * * * * * * * * * * * * * * * * //

dimensions      [0 1 -1 0 0 0 0];

internalField   nonuniform List<vector> 
5000
(
(0.611508 -0.484169 0)
(2.32389 -2.29919 0)
(6.37033 -2.73944 0)
(10.2593 -2.48233 0)
(13.4154 -2.00346 0)
(15.9863 -1.48714 0)
(17.7932 -1.00397 0)
(19.1268 -0.605861 0)
(19.97 -0.28007 0)
(20.4989 -0.0354844 0)
(20.9334 0.0917326 0)
(21.0787 0.189324 0)
(21.2694 0.208087 0)
(21.5411 0.173573 0)
(21.689 0.154704 0)
(21.9263 0.102546 0)
(22.3324 0.0110911 0)
(22.7015 -0.0302877 0)
(23.0311 -0.0169786 0)
(23.4125 -0.00871139 0)
(23.7693 0.0122989 0)
(24.0058 0.0885531 0)
(24.119 0.192822 0)
(24.0948 0.294916 0)
(23.8783 0.430694 0)
(23.4374 0.632762 0)
(22.7554 0.863292 0)
(21.7861 1.07243 0)
(20.4809 1.27363 0)
(18.8448 1.50787 0)
(16.9284 1.75751 0)
(14.784 1.94317 0)
(12.4636 2.00456 0)
(10.0565 1.95287 0)
(7.69933 1.83726 0)
(5.52752 1.68349 0)
(3.61513 1.48362 0)
(1.96152 1.23707 0)
(0.530542 0.98136 0)
(-0.705224 0.772846 0)
(-1.75851 0.641593 0)
(-2.65139 0.570571 0)
(-3.431 0.518042 0)
(-4.15774 0.456676 0)
(-4.87909 0.392767 0)
(-5.61565 0.35394 0)
(-6.37235 0.363482 0)
(-7.16327 0.424938 0)
(-8.02672 0.524914 0)
(-9.01752 0.644578 0)
(-10.182 0.76786 0)
(-11.5339 0.883253 0)
(-13.0481 0.983083 0)
(-14.6754 1.0635 0)
(-16.3665 1.12474 0)
(-18.0906 1.16989 0)
(-19.8368 1.20164 0)
(-21.5985 1.21873 0)
(-23.3531 1.21419 0)
(-25.0503 1.17708 0)
(-26.6151 1.09757 0)
(-27.9647 0.972967 0)
(-29.0296 0.811366 0)
(-29.7702 0.630471 0)
(-30.1821 0.45241 0)
(-30.289 0.297473 0)
(-30.1279 0.180074 0)
(-29.7364 0.107305 0)
(-29.1472 0.0787475 0)
(-28.3908 0.0875961 0)
(-27.5022 0.124819 0)
(-26.525 0.186127 0)
(-25.5123 0.276993 0)
(-24.5266 0.409048 0)
(-23.6356 0.587358 0)
(-22.9022 0.798154 0)
(-22.3657 1.01003 0)
(-22.0226 1.19166 0)
(-21.8225 1.33241 0)
(-21.6869 1.44657 0)
(-21.543 1.55738 0)
(-21.3518 1.67825 0)
(-21.1167 1.81165 0)
(-20.8771 1.96392 0)
(-20.6973 2.15088 0)
(-20.6542 2.37862 0)
(-20.8118 2.62117 0)
(-21.1939 2.83304 0)
(-21.7889 2.99343 0)
(-22.5836 3.12283 0)
(-23.5569 3.23995 0)
(-24.6488 3.34373 0)
(-25.8534 3.48491 0)
(-27.2911 3.75623 0)
(-29.0495 4.20624 0)
(-31.332 4.93633 0)
(-34.5266 6.12565 0)
(-39.179 8.13449 0)
(-45.0625 11.5482 0)
(-60.8199 19.0781 0)
(2.22982 -3.38824 0)
(7.38347 -9.62435 0)
(14.8016 -10.5044 0)
(21.1617 -9.08409 0)
(25.8963 -7.33092 0)
(29.4349 -5.54287 0)
(31.6643 -4.02509 0)
(33.1178 -2.74908 0)
(34.0582 -1.912 0)
(34.3304 -1.22325 0)
(34.419 -0.821129 0)
(34.4894 -0.632306 0)
(34.3285 -0.572954 0)
(34.1099 -0.599982 0)
(34.0532 -0.680694 0)
(34.0419 -0.805023 0)
(33.9031 -0.935142 0)
(33.7868 -0.997899 0)
(33.8208 -0.977325 0)
(33.7837 -0.900654 0)
(33.5195 -0.751584 0)
(33.1811 -0.503963 0)
(32.8334 -0.180295 0)
(32.2699 0.200771 0)
(31.3474 0.668655 0)
(30.1543 1.24164 0)
(28.766 1.88289 0)
(27.0938 2.55264 0)
(25.0588 3.25166 0)
(22.7468 3.97016 0)
(20.2938 4.6257 0)
(17.7243 5.09729 0)
(14.9967 5.31617 0)
(12.167 5.29661 0)
(9.41859 5.08405 0)
(6.91509 4.70552 0)
(4.67504 4.18528 0)
(2.61835 3.58892 0)
(0.706834 3.02244 0)
(-0.998255 2.57506 0)
(-2.41702 2.26609 0)
(-3.56263 2.05087 0)
(-4.55641 1.87671 0)
(-5.53755 1.73199 0)
(-6.56607 1.64749 0)
(-7.61012 1.6609 0)
(-8.61744 1.78488 0)
(-9.59535 2.00398 0)
(-10.6273 2.29236 0)
(-11.8217 2.62795 0)
(-13.2456 2.99087 0)
(-14.8968 3.35437 0)
(-16.7258 3.68374 0)
(-18.6788 3.94667 0)
(-20.7283 4.12631 0)
(-22.8717 4.22461 0)
(-25.1086 4.25243 0)
(-27.4142 4.21301 0)
(-29.7284 4.09111 0)
(-31.966 3.85597 0)
(-34.0381 3.4773 0)
(-35.8751 2.94447 0)
(-37.4365 2.27821 0)
(-38.7064 1.52841 0)
(-39.6805 0.760364 0)
(-40.3519 0.0366388 0)
(-40.7085 -0.597961 0)
(-40.7429 -1.12412 0)
(-40.4712 -1.54634 0)
(-39.9449 -1.88113 0)
(-39.2426 -2.13841 0)
(-38.4449 -2.30596 0)
(-37.6091 -2.35043 0)
(-36.7625 -2.23995 0)
(-35.9178 -1.97664 0)
(-35.0906 -1.61458 0)
(-34.2999 -1.24581 0)
(-33.5494 -0.960762 0)
(-32.8148 -0.809323 0)
(-32.0591 -0.786249 0)
(-31.2696 -0.841761 0)
(-30.4844 -0.902958 0)
(-29.7823 -0.895046 0)
(-29.2438 -0.759958 0)
(-28.9199 -0.468827 0)
(-28.8379 -0.0257249 0)
(-29.0214 0.527649 0)
(-29.4678 1.10455 0)
(-30.108 1.60518 0)
(-30.8618 2.00686 0)
(-31.7262 2.38048 0)
(-32.681 2.75972 0)
(-33.6831 3.167 0)
(-34.8515 3.80083 0)
(-36.2395 4.85741 0)
(-37.9007 6.37961 0)
(-40.1089 8.56411 0)
(-42.7528 11.5688 0)
(-44.6708 15.2431 0)
(-50.0303 33.1843 0)
(3.26534 -10.0995 0)
(10.0587 -21.7165 0)
(18.9142 -21.139 0)
(25.6543 -17.1088 0)
(30.0398 -12.8801 0)
(33.0497 -9.13397 0)
(34.8107 -6.15835 0)
(35.6685 -3.82558 0)
(35.9959 -2.17948 0)
(36.0305 -1.1204 0)
(35.6992 -0.39434 0)
(35.2569 -0.0170294 0)
(34.8772 0.080487 0)
(34.4259 0.0862153 0)
(33.8419 0.026557 0)
(33.3226 -0.105648 0)
(32.8443 -0.210749 0)
(32.2828 -0.216042 0)
(31.685 -0.133284 0)
(31.0496 0.041727 0)
(30.2903 0.347469 0)
(29.4244 0.79081 0)
(28.4891 1.34653 0)
(27.4033 2.00554 0)
(26.085 2.77357 0)
(24.5678 3.63769 0)
(22.9088 4.57005 0)
(21.0982 5.55049 0)
(19.1266 6.54957 0)
(17.0551 7.49043 0)
(14.9585 8.25772 0)
(12.8523 8.75604 0)
(10.726 8.94898 0)
(8.62313 8.84247 0)
(6.63557 8.45317 0)
(4.81793 7.81281 0)
(3.14297 6.99694 0)
(1.55809 6.1257 0)
(0.0680795 5.31807 0)
(-1.25948 4.6386 0)
(-2.36997 4.08668 0)
(-3.28909 3.63414 0)
(-4.10974 3.27085 0)
(-4.918 3.01747 0)
(-5.73605 2.90325 0)
(-6.53304 2.9383 0)
(-7.28395 3.10761 0)
(-8.01491 3.38714 0)
(-8.79617 3.76116 0)
(-9.69709 4.22243 0)
(-10.7479 4.75673 0)
(-11.9377 5.32851 0)
(-13.2407 5.88262 0)
(-14.6446 6.3622 0)
(-16.1577 6.72884 0)
(-17.7931 6.96996 0)
(-19.5477 7.08876 0)
(-21.3879 7.08525 0)
(-23.2535 6.9425 0)
(-25.0752 6.62775 0)
(-26.7959 6.10774 0)
(-28.383 5.36924 0)
(-29.8275 4.43366 0)
(-31.1294 3.35826 0)
(-32.2801 2.22426 0)
(-33.2526 1.11724 0)
(-34.0077 0.107065 0)
(-34.5146 -0.765931 0)
(-34.7752 -1.49323 0)
(-34.8322 -2.0862 0)
(-34.7525 -2.55415 0)
(-34.5943 -2.88514 0)
(-34.3826 -3.04524 0)
(-34.1122 -3.00229 0)
(-33.7737 -2.76117 0)
(-33.3736 -2.38383 0)
(-32.9266 -1.97409 0)
(-32.4306 -1.63416 0)
(-31.862 -1.42179 0)
(-31.2104 -1.3329 0)
(-30.5186 -1.30973 0)
(-29.8815 -1.25986 0)
(-29.3961 -1.08048 0)
(-29.115 -0.693041 0)
(-29.0435 -0.0812579 0)
(-29.1693 0.695637 0)
(-29.4798 1.53379 0)
(-29.9446 2.33289 0)
(-30.4857 3.01503 0)
(-31.0031 3.53468 0)
(-31.4657 3.93316 0)
(-31.8981 4.32557 0)
(-32.2222 4.759 0)
(-32.3265 5.37408 0)
(-32.2432 6.31252 0)
(-31.7676 7.49811 0)
(-30.6196 9.14949 0)
(-28.2695 11.4584 0)
(-25.4856 16.886 0)
(-19.1787 26.771 0)
(3.64638 -18.3431 0)
(11.2452 -35.3818 0)
(20.1969 -32.2033 0)
(26.614 -24.6334 0)
(30.5306 -17.6739 0)
(32.8479 -11.9809 0)
(34.0044 -7.48841 0)
(34.5236 -4.34932 0)
(34.513 -2.04976 0)
(34.0985 -0.597605 0)
(33.6081 0.286987 0)
(33.0471 0.790417 0)
(32.3464 1.00188 0)
(31.6077 1.0141 0)
(30.9153 0.947676 0)
(30.2181 0.890339 0)
(29.4133 0.863763 0)
(28.5828 0.894947 0)
(27.8178 1.03838 0)
(26.9739 1.3257 0)
(25.9422 1.75999 0)
(24.8487 2.34555 0)
(23.7634 3.08295 0)
(22.5393 3.95118 0)
(21.0767 4.92094 0)
(19.4823 5.97555 0)
(17.8752 7.10078 0)
(16.2264 8.2553 0)
(14.472 9.35991 0)
(12.6617 10.3179 0)
(10.9072 11.0443 0)
(9.24779 11.4796 0)
(7.642 11.5861 0)
(6.07101 11.3475 0)
(4.58514 10.7826 0)
(3.23916 9.95973 0)
(2.02322 8.98877 0)
(0.883765 7.98578 0)
(-0.202236 7.03523 0)
(-1.19783 6.17747 0)
(-2.05121 5.4267 0)
(-2.75691 4.7973 0)
(-3.36666 4.31377 0)
(-3.94563 4.00002 0)
(-4.52427 3.86387 0)
(-5.09191 3.8938 0)
(-5.63059 4.07027 0)
(-6.15076 4.3799 0)
(-6.69535 4.81927 0)
(-7.31428 5.38499 0)
(-8.0368 6.05811 0)
(-8.86506 6.79529 0)
(-9.78875 7.53366 0)
(-10.8038 8.20667 0)
(-11.9197 8.76084 0)
(-13.1506 9.16356 0)
(-14.4993 9.39871 0)
(-15.9434 9.45505 0)
(-17.4357 9.31608 0)
(-18.9175 8.95826 0)
(-20.3402 8.35915 0)
(-21.6813 7.51126 0)
(-22.9444 6.43457 0)
(-24.1446 5.18188 0)
(-25.2866 3.83378 0)
(-26.3516 2.48375 0)
(-27.304 1.2179 0)
(-28.1144 0.0968291 0)
(-28.7828 -0.851631 0)
(-29.3418 -1.6246 0)
(-29.8353 -2.22584 0)
(-30.2873 -2.65086 0)
(-30.6884 -2.88908 0)
(-31.0127 -2.94397 0)
(-31.246 -2.85446 0)
(-31.396 -2.69533 0)
(-31.4731 -2.54931 0)
(-31.4701 -2.46956 0)
(-31.3756 -2.45909 0)
(-31.2129 -2.47524 0)
(-31.0551 -2.44377 0)
(-30.99 -2.27128 0)
(-31.0701 -1.86704 0)
(-31.3023 -1.1857 0)
(-31.6724 -0.268931 0)
(-32.1497 0.757162 0)
(-32.669 1.73902 0)
(-33.1472 2.5592 0)
(-33.5345 3.15273 0)
(-33.7859 3.49389 0)
(-33.8045 3.61655 0)
(-33.6013 3.61377 0)
(-33.1246 3.57672 0)
(-32.2099 3.5402 0)
(-30.8527 3.49332 0)
(-28.7869 3.38626 0)
(-25.9013 3.37492 0)
(-22.2386 4.42825 0)
(-17.5511 7.91744 0)
(-10.6778 11.803 0)
(3.6994 -26.9331 0)
(11.0911 -49.1972 0)
(19.703 -42.8177 0)
(25.5071 -31.3567 0)
(28.6161 -21.6406 0)
(30.5611 -14.0477 0)
(31.3117 -8.31492 0)
(31.388 -4.30933 0)
(31.2053 -1.58787 0)
(30.6353 0.179974 0)
(29.9489 1.25775 0)
(29.1844 1.83543 0)
(28.4004 2.07551 0)
(27.607 2.1317 0)
(26.7844 2.09533 0)
(25.9707 2.04377 0)
(25.1307 2.05536 0)
(24.2668 2.17079 0)
(23.4224 2.39949 0)
(22.5354 2.76341 0)
(21.5534 3.29902 0)
(20.5324 4.0143 0)
(19.4747 4.87813 0)
(18.2803 5.8608 0)
(16.929 6.95487 0)
(15.526 8.14493 0)
(14.1325 9.37857 0)
(12.698 10.5787 0)
(11.1941 11.67 0)
(9.70026 12.5829 0)
(8.30769 13.2436 0)
(7.01061 13.5801 0)
(5.74774 13.548 0)
(4.51481 13.1524 0)
(3.38021 12.4475 0)
(2.3928 11.5177 0)
(1.5162 10.4548 0)
(0.672916 9.34234 0)
(-0.164247 8.24949 0)
(-0.943835 7.23243 0)
(-1.59483 6.33716 0)
(-2.10177 5.59949 0)
(-2.51938 5.04192 0)
(-2.92172 4.67233 0)
(-3.3432 4.48806 0)
(-3.76623 4.4832 0)
(-4.15775 4.65401 0)
(-4.51362 4.99855 0)
(-4.87136 5.51116 0)
(-5.28691 6.17549 0)
(-5.80104 6.95951 0)
(-6.42306 7.81509 0)
(-7.13941 8.68246 0)
(-7.93542 9.49815 0)
(-8.81181 10.2033 0)
(-9.78431 10.7498 0)
(-10.8675 11.1015 0)
(-12.0555 11.2323 0)
(-13.3133 11.1222 0)
(-14.5886 10.7549 0)
(-15.8348 10.1202 0)
(-17.0319 9.22099 0)
(-18.1905 8.08196 0)
(-19.3354 6.75574 0)
(-20.4814 5.3207 0)
(-21.6183 3.86884 0)
(-22.7173 2.48746 0)
(-23.7541 1.24201 0)
(-24.7285 0.1699 0)
(-25.6635 -0.712023 0)
(-26.5834 -1.39329 0)
(-27.4929 -1.86295 0)
(-28.3773 -2.11912 0)
(-29.2223 -2.18908 0)
(-30.0291 -2.13991 0)
(-30.8012 -2.06288 0)
(-31.5203 -2.03588 0)
(-32.1493 -2.08928 0)
(-32.674 -2.19661 0)
(-33.1381 -2.2876 0)
(-33.6198 -2.26646 0)
(-34.1693 -2.03276 0)
(-34.7824 -1.51583 0)
(-35.4353 -0.717321 0)
(-36.1094 0.270376 0)
(-36.7591 1.29299 0)
(-37.2917 2.19015 0)
(-37.6215 2.82893 0)
(-37.7178 3.12227 0)
(-37.562 3.08834 0)
(-37.1048 2.78054 0)
(-36.3063 2.21478 0)
(-35.1612 1.54549 0)
(-33.6121 0.774577 0)
(-31.6291 -0.107929 0)
(-29.1305 -0.924717 0)
(-26.1425 -1.44918 0)
(-23.3637 -0.593825 0)
(-19.2229 1.63242 0)
(-15.2903 3.0687 0)
(3.39212 -35.0625 0)
(10.2674 -62.1939 0)
(17.957 -52.4102 0)
(23.0327 -37.2491 0)
(25.6859 -24.9082 0)
(27.164 -15.5081 0)
(27.6466 -8.76614 0)
(27.5103 -3.98256 0)
(27.0929 -0.841161 0)
(26.3317 1.18603 0)
(25.5189 2.39217 0)
(24.6665 3.04119 0)
(23.7317 3.32381 0)
(22.8189 3.36936 0)
(21.9963 3.30117 0)
(21.2316 3.2296 0)
(20.4174 3.22399 0)
(19.5878 3.33159 0)
(18.8316 3.59243 0)
(18.0746 4.03259 0)
(17.2325 4.65814 0)
(16.3558 5.45689 0)
(15.4698 6.40897 0)
(14.4936 7.49686 0)
(13.3947 8.69819 0)
(12.2506 9.96978 0)
(11.1183 11.2477 0)
(9.9704 12.4616 0)
(8.78723 13.5406 0)
(7.62112 14.4063 0)
(6.53046 14.9778 0)
(5.50976 15.1954 0)
(4.52549 15.0434 0)
(3.58891 14.5496 0)
(2.7498 13.7676 0)
(2.02327 12.7621 0)
(1.35762 11.6065 0)
(0.689829 10.3834 0)
(0.0189006 9.17735 0)
(-0.590317 8.06149 0)
(-1.07412 7.08613 0)
(-1.43331 6.27835 0)
(-1.7313 5.65059 0)
(-2.03672 5.21133 0)
(-2.3703 4.97079 0)
(-2.70227 4.9394 0)
(-2.99489 5.12192 0)
(-3.24694 5.51219 0)
(-3.50293 6.09197 0)
(-3.82482 6.83321 0)
(-4.25403 7.70048 0)
(-4.79343 8.65106 0)
(-5.41872 9.63298 0)
(-6.10626 10.5844 0)
(-6.855 11.4377 0)
(-7.68716 12.1275 0)
(-8.62853 12.5995 0)
(-9.68383 12.8154 0)
(-10.8257 12.7522 0)
(-12.0056 12.3991 0)
(-13.1799 11.7561 0)
(-14.3323 10.8375 0)
(-15.4776 9.67818 0)
(-16.6447 8.33767 0)
(-17.8526 6.89744 0)
(-19.0974 5.44807 0)
(-20.3603 4.07206 0)
(-21.6268 2.8293 0)
(-22.8986 1.75405 0)
(-24.1839 0.863717 0)
(-25.4799 0.170169 0)
(-26.766 -0.318628 0)
(-28.0231 -0.610519 0)
(-29.256 -0.743826 0)
(-30.49 -0.787192 0)
(-31.7356 -0.817504 0)
(-32.9613 -0.88869 0)
(-34.1161 -1.0123 0)
(-35.1835 -1.1563 0)
(-36.2022 -1.25159 0)
(-37.2199 -1.20259 0)
(-38.2359 -0.917358 0)
(-39.2066 -0.359183 0)
(-40.093 0.418239 0)
(-40.864 1.28743 0)
(-41.4511 2.09388 0)
(-41.7737 2.69169 0)
(-41.8198 2.95975 0)
(-41.5654 2.82035 0)
(-40.9794 2.32282 0)
(-40.1423 1.52151 0)
(-38.9938 0.470968 0)
(-37.522 -0.669635 0)
(-35.8533 -1.9189 0)
(-33.9035 -3.06772 0)
(-31.7606 -4.04931 0)
(-29.4505 -4.48785 0)
(-28.1814 -3.70377 0)
(-25.0831 -2.29194 0)
(-23.4974 -1.77116 0)
(2.97668 -42.2834 0)
(8.90773 -73.7366 0)
(15.6856 -60.9409 0)
(20.0339 -42.2644 0)
(22.3188 -27.6158 0)
(23.5004 -16.6683 0)
(23.7949 -8.856 0)
(23.4979 -3.43287 0)
(22.8725 0.153711 0)
(21.9893 2.40082 0)
(20.9815 3.72161 0)
(19.9478 4.38147 0)
(18.9129 4.62964 0)
(17.9159 4.64832 0)
(17.0078 4.54346 0)
(16.2124 4.39958 0)
(15.458 4.30765 0)
(14.7579 4.35545 0)
(14.159 4.59307 0)
(13.5766 5.03505 0)
(12.9378 5.68516 0)
(12.2914 6.53537 0)
(11.6531 7.55939 0)
(10.9453 8.72489 0)
(10.1421 9.99916 0)
(9.31437 11.3346 0)
(8.50504 12.6597 0)
(7.67541 13.8903 0)
(6.79874 14.9451 0)
(5.92279 15.7518 0)
(5.10914 16.2495 0)
(4.36226 16.3985 0)
(3.65148 16.189 0)
(2.9729 15.6402 0)
(2.35293 14.7934 0)
(1.79806 13.71 0)
(1.27281 12.4713 0)
(0.739962 11.1717 0)
(0.209485 9.90147 0)
(-0.266029 8.72828 0)
(-0.644208 7.69127 0)
(-0.935482 6.81072 0)
(-1.19335 6.10364 0)
(-1.46655 5.59286 0)
(-1.76145 5.30445 0)
(-2.04772 5.25748 0)
(-2.29759 5.4549 0)
(-2.5207 5.88208 0)
(-2.76509 6.51303 0)
(-3.08683 7.31832 0)
(-3.51588 8.2676 0)
(-4.04432 9.32445 0)
(-4.64282 10.4381 0)
(-5.28978 11.5398 0)
(-5.99076 12.5485 0)
(-6.77502 13.3841 0)
(-7.67297 13.9809 0)
(-8.69146 14.2945 0)
(-9.8049 14.3019 0)
(-10.9688 13.9965 0)
(-12.1457 13.3856 0)
(-13.3258 12.493 0)
(-14.5268 11.3625 0)
(-15.7756 10.0605 0)
(-17.0874 8.67011 0)
(-18.4579 7.27812 0)
(-19.875 5.95966 0)
(-21.3361 4.76882 0)
(-22.8491 3.74001 0)
(-24.4165 2.89643 0)
(-26.0189 2.25494 0)
(-27.6218 1.81904 0)
(-29.2035 1.56445 0)
(-30.7729 1.43284 0)
(-32.3518 1.34682 0)
(-33.9372 1.24005 0)
(-35.4904 1.08138 0)
(-36.9724 0.878278 0)
(-38.3812 0.668598 0)
(-39.7391 0.51733 0)
(-41.0451 0.5108 0)
(-42.2594 0.722763 0)
(-43.3344 1.15811 0)
(-44.2331 1.73034 0)
(-44.9078 2.30596 0)
(-45.2865 2.75078 0)
(-45.3237 2.9234 0)
(-45.0663 2.72292 0)
(-44.5061 2.15817 0)
(-43.6433 1.2194 0)
(-42.6056 0.041366 0)
(-41.3176 -1.31731 0)
(-39.9238 -2.71111 0)
(-38.4166 -4.07286 0)
(-36.8618 -5.24335 0)
(-35.3966 -6.10361 0)
(-33.7281 -6.38031 0)
(-33.7607 -5.5859 0)
(-31.2602 -4.46735 0)
(-31.0612 -4.20657 0)
(2.44971 -48.3444 0)
(7.46901 -83.7689 0)
(13.2305 -68.3194 0)
(17.0295 -46.7103 0)
(18.965 -29.9498 0)
(19.993 -17.5836 0)
(20.158 -8.67682 0)
(19.739 -2.63634 0)
(18.9186 1.42676 0)
(17.792 3.91679 0)
(16.6091 5.32621 0)
(15.3985 5.98754 0)
(14.228 6.14984 0)
(13.1314 6.01669 0)
(12.1387 5.74907 0)
(11.2916 5.46434 0)
(10.5494 5.25655 0)
(9.93645 5.20792 0)
(9.48093 5.36757 0)
(9.07959 5.75512 0)
(8.65331 6.38079 0)
(8.24477 7.23945 0)
(7.87029 8.30307 0)
(7.46261 9.5325 0)
(6.99093 10.8804 0)
(6.49557 12.2779 0)
(5.99395 13.6351 0)
(5.45382 14.8652 0)
(4.86993 15.9 0)
(4.2952 16.6835 0)
(3.77555 17.1609 0)
(3.29755 17.2863 0)
(2.82216 17.0406 0)
(2.34363 16.4407 0)
(1.89001 15.5365 0)
(1.47571 14.4009 0)
(1.07837 13.1213 0)
(0.668413 11.7881 0)
(0.248638 10.4808 0)
(-0.145745 9.25789 0)
(-0.484019 8.15715 0)
(-0.770694 7.20663 0)
(-1.03925 6.43619 0)
(-1.31932 5.88066 0)
(-1.61222 5.57241 0)
(-1.89772 5.52984 0)
(-2.16298 5.75094 0)
(-2.42475 6.21686 0)
(-2.7248 6.90183 0)
(-3.10389 7.78066 0)
(-3.57745 8.82706 0)
(-4.13179 10.0039 0)
(-4.74179 11.2534 0)
(-5.39499 12.496 0)
(-6.10416 13.6407 0)
(-6.89974 14.6012 0)
(-7.80831 15.3096 0)
(-8.83243 15.7219 0)
(-9.94681 15.8164 0)
(-11.114 15.589 0)
(-12.3085 15.0515 0)
(-13.5318 14.2331 0)
(-14.8066 13.1844 0)
(-16.157 11.9755 0)
(-17.5908 10.6885 0)
(-19.0993 9.40311 0)
(-20.6722 8.18346 0)
(-22.31 7.07389 0)
(-24.018 6.10556 0)
(-25.7875 5.30574 0)
(-27.5885 4.69828 0)
(-29.3885 4.29011 0)
(-31.1792 4.05402 0)
(-32.9775 3.92586 0)
(-34.7915 3.82488 0)
(-36.5908 3.68527 0)
(-38.3243 3.4767 0)
(-39.9675 3.20611 0)
(-41.5335 2.91128 0)
(-43.0249 2.6549 0)
(-44.3963 2.50906 0)
(-45.5881 2.5207 0)
(-46.5726 2.67339 0)
(-47.3216 2.87982 0)
(-47.7694 3.02539 0)
(-47.8822 3.01451 0)
(-47.6823 2.73193 0)
(-47.1718 2.07687 0)
(-46.4408 1.16985 0)
(-45.4706 -0.0637812 0)
(-44.3896 -1.49099 0)
(-43.2241 -2.90711 0)
(-41.9751 -4.44524 0)
(-40.8322 -5.69538 0)
(-39.7348 -6.82979 0)
(-38.7681 -7.49265 0)
(-37.5459 -7.59806 0)
(-38.3888 -6.6705 0)
(-36.0275 -5.52035 0)
(-36.6083 -5.31622 0)
(2.00412 -53.2524 0)
(6.02145 -92.1727 0)
(10.9364 -74.6368 0)
(14.1182 -50.5989 0)
(15.8275 -32.0446 0)
(16.7298 -18.303 0)
(16.7607 -8.4107 0)
(16.1922 -1.6214 0)
(15.2918 2.87789 0)
(13.9733 5.67142 0)
(12.5969 7.20901 0)
(11.1795 7.8558 0)
(9.81533 7.90475 0)
(8.56321 7.57832 0)
(7.47335 7.07529 0)
(6.59547 6.55463 0)
(5.87636 6.13637 0)
(5.31886 5.90822 0)
(4.94207 5.91658 0)
(4.65835 6.18659 0)
(4.40619 6.74144 0)
(4.22443 7.58244 0)
(4.1145 8.67208 0)
(3.99517 9.94885 0)
(3.8165 11.3417 0)
(3.60118 12.7693 0)
(3.37141 14.1448 0)
(3.11756 15.3922 0)
(2.84173 16.4487 0)
(2.57271 17.2515 0)
(2.32367 17.7337 0)
(2.07008 17.8432 0)
(1.78568 17.5669 0)
(1.48069 16.937 0)
(1.18732 16.0165 0)
(0.91554 14.8804 0)
(0.638995 13.6061 0)
(0.326242 12.2696 0)
(-0.0235731 10.942 0)
(-0.380545 9.68354 0)
(-0.714545 8.54235 0)
(-1.02111 7.55864 0)
(-1.31898 6.7708 0)
(-1.6276 6.21621 0)
(-1.95013 5.92487 0)
(-2.27778 5.91108 0)
(-2.60798 6.17058 0)
(-2.9565 6.68598 0)
(-3.35169 7.43542 0)
(-3.81666 8.39645 0)
(-4.3556 9.54101 0)
(-4.955 10.8254 0)
(-5.59816 12.1836 0)
(-6.28138 13.5303 0)
(-7.02022 14.7732 0)
(-7.84074 15.8282 0)
(-8.76172 16.6305 0)
(-9.78054 17.1383 0)
(-10.8742 17.3305 0)
(-12.0162 17.2026 0)
(-13.197 16.7665 0)
(-14.4315 16.0521 0)
(-15.7472 15.1112 0)
(-17.163 14.0151 0)
(-18.6786 12.8448 0)
(-20.2823 11.6764 0)
(-21.9682 10.5685 0)
(-23.7411 9.56071 0)
(-25.6012 8.68107 0)
(-27.5239 7.95402 0)
(-29.4638 7.39807 0)
(-31.3856 7.0123 0)
(-33.2893 6.76433 0)
(-35.1963 6.59389 0)
(-37.1057 6.43226 0)
(-38.9742 6.22308 0)
(-40.7488 5.93277 0)
(-42.4122 5.5557 0)
(-43.975 5.12127 0)
(-45.4226 4.69009 0)
(-46.694 4.32169 0)
(-47.7318 4.03429 0)
(-48.5258 3.79952 0)
(-49.0616 3.56174 0)
(-49.2636 3.23903 0)
(-49.1284 2.74606 0)
(-48.7779 2.04251 0)
(-48.1121 1.07401 0)
(-47.2693 -0.14286 0)
(-46.3943 -1.45844 0)
(-45.3061 -2.9855 0)
(-44.3472 -4.407 0)
(-43.3909 -5.83426 0)
(-42.4921 -7.04079 0)
(-41.8069 -7.97992 0)
(-41.1557 -8.48108 0)
(-40.0831 -8.35605 0)
(-41.4748 -7.26777 0)
(-39.1036 -6.04061 0)
(-40.0047 -5.82943 0)
(1.52329 -57.1627 0)
(4.67624 -98.9453 0)
(8.62494 -79.9098 0)
(11.1979 -53.87 0)
(12.6587 -33.8378 0)
(13.3889 -18.8256 0)
(13.3427 -8.03486 0)
(12.6852 -0.428075 0)
(11.6967 4.55904 0)
(10.337 7.65038 0)
(8.84258 9.31341 0)
(7.28077 9.9223 0)
(5.78813 9.82693 0)
(4.41262 9.29538 0)
(3.22391 8.54678 0)
(2.28992 7.75166 0)
(1.55208 7.04723 0)
(1.00016 6.5465 0)
(0.655795 6.323 0)
(0.455561 6.42273 0)
(0.349693 6.8742 0)
(0.353299 7.66485 0)
(0.438602 8.7337 0)
(0.520474 10.0018 0)
(0.558954 11.3952 0)
(0.581523 12.8384 0)
(0.611581 14.2481 0)
(0.637946 15.5412 0)
(0.647138 16.6401 0)
(0.639205 17.469 0)
(0.608783 17.9581 0)
(0.540516 18.0652 0)
(0.432219 17.7928 0)
(0.305232 17.1847 0)
(0.179729 16.3039 0)
(0.0459037 15.2148 0)
(-0.130794 13.9813 0)
(-0.375795 12.6709 0)
(-0.681181 11.3556 0)
(-1.01443 10.1033 0)
(-1.34681 8.97155 0)
(-1.67241 8.00646 0)
(-2.00429 7.24707 0)
(-2.35737 6.72759 0)
(-2.73649 6.47451 0)
(-3.13874 6.50146 0)
(-3.56396 6.80734 0)
(-4.02112 7.37948 0)
(-4.52407 8.19855 0)
(-5.08146 9.23977 0)
(-5.69002 10.4687 0)
(-6.33751 11.8347 0)
(-7.01322 13.268 0)
(-7.71846 14.6847 0)
(-8.46875 15.9969 0)
(-9.28487 17.126 0)
(-10.1784 18.0113 0)
(-11.1433 18.6134 0)
(-12.1618 18.9112 0)
(-13.2226 18.899 0)
(-14.3362 18.5857 0)
(-15.532 17.9987 0)
(-16.8402 17.187 0)
(-18.2708 16.2195 0)
(-19.8119 15.1734 0)
(-21.447 14.1198 0)
(-23.1732 13.1131 0)
(-24.9995 12.192 0)
(-26.9226 11.3873 0)
(-28.9094 10.7254 0)
(-30.9083 10.2204 0)
(-32.8841 9.8595 0)
(-34.8344 9.59736 0)
(-36.7674 9.36957 0)
(-38.6656 9.11537 0)
(-40.486 8.79065 0)
(-42.194 8.36686 0)
(-43.7809 7.83184 0)
(-45.2374 7.20267 0)
(-46.5273 6.52994 0)
(-47.6045 5.86617 0)
(-48.4392 5.21872 0)
(-49.0144 4.55282 0)
(-49.318 3.84917 0)
(-49.3296 3.09278 0)
(-49.0349 2.18997 0)
(-48.539 1.10653 0)
(-47.8955 -0.0310144 0)
(-47.0245 -1.41881 0)
(-46.1909 -2.8233 0)
(-45.3354 -4.23078 0)
(-44.4887 -5.70522 0)
(-43.7869 -6.93637 0)
(-43.177 -8.07217 0)
(-42.6905 -8.81725 0)
(-42.2252 -9.11694 0)
(-41.1878 -8.78464 0)
(-43.0521 -7.60767 0)
(-40.6366 -6.36781 0)
(-41.6238 -6.07335 0)
(1.06782 -60.0258 0)
(3.34377 -104.235 0)
(6.33243 -84.0344 0)
(8.14279 -56.4916 0)
(9.25715 -35.232 0)
(9.72267 -19.2004 0)
(9.59393 -7.49541 0)
(8.96511 0.79429 0)
(7.93484 6.33572 0)
(6.62799 9.73631 0)
(5.14547 11.5323 0)
(3.55607 12.1412 0)
(2.06125 11.9186 0)
(0.682026 11.1625 0)
(-0.536761 10.1263 0)
(-1.51702 9.00742 0)
(-2.29319 7.97144 0)
(-2.85919 7.16263 0)
(-3.18584 6.6792 0)
(-3.32974 6.57586 0)
(-3.35036 6.87362 0)
(-3.25753 7.54658 0)
(-3.08221 8.52741 0)
(-2.88247 9.7409 0)
(-2.67883 11.1182 0)
(-2.45366 12.5801 0)
(-2.20347 14.0289 0)
(-1.95183 15.3633 0)
(-1.72318 16.4935 0)
(-1.53107 17.3437 0)
(-1.38419 17.8546 0)
(-1.28385 17.9963 0)
(-1.21694 17.7782 0)
(-1.16651 17.2412 0)
(-1.13523 16.4391 0)
(-1.15241 15.4266 0)
(-1.25217 14.2615 0)
(-1.44469 13.0111 0)
(-1.70935 11.7503 0)
(-2.01343 10.5514 0)
(-2.33607 9.4734 0)
(-2.67702 8.56129 0)
(-3.04791 7.85091 0)
(-3.45818 7.37426 0)
(-3.90835 7.15915 0)
(-4.39369 7.22419 0)
(-4.91196 7.57422 0)
(-5.46638 8.19979 0)
(-6.06115 9.07998 0)
(-6.69435 10.1846 0)
(-7.35533 11.4733 0)
(-8.03004 12.8924 0)
(-8.71066 14.3732 0)
(-9.40248 15.8358 0)
(-10.1218 17.1983 0)
(-10.8851 18.3875 0)
(-11.6971 19.3475 0)
(-12.5494 20.041 0)
(-13.4317 20.4472 0)
(-14.3504 20.5575 0)
(-15.3358 20.3777 0)
(-16.43 19.9324 0)
(-17.6627 19.2689 0)
(-19.0357 18.4538 0)
(-20.5299 17.5598 0)
(-22.1282 16.6503 0)
(-23.8303 15.7718 0)
(-25.6414 14.957 0)
(-27.5464 14.2341 0)
(-29.5018 13.628 0)
(-31.4586 13.1503 0)
(-33.3937 12.7838 0)
(-35.3094 12.48 0)
(-37.1975 12.1744 0)
(-39.017 11.8073 0)
(-40.7191 11.3356 0)
(-42.2877 10.7335 0)
(-43.7297 9.99351 0)
(-45.0239 9.12956 0)
(-46.1129 8.17377 0)
(-46.9654 7.1639 0)
(-47.5997 6.12302 0)
(-48.0005 5.04297 0)
(-48.1054 3.91011 0)
(-47.9628 2.75062 0)
(-47.6562 1.55093 0)
(-47.0743 0.22202 0)
(-46.42 -1.10882 0)
(-45.7438 -2.47611 0)
(-44.9417 -3.94999 0)
(-44.2766 -5.28705 0)
(-43.6736 -6.66794 0)
(-43.1385 -7.82707 0)
(-42.7442 -8.79835 0)
(-42.3777 -9.3711 0)
(-42.037 -9.48096 0)
(-41.0709 -9.01181 0)
(-43.37 -7.80882 0)
(-40.8445 -6.52172 0)
(-41.9813 -6.10902 0)
(0.591431 -61.935 0)
(1.94577 -107.761 0)
(3.84625 -86.8174 0)
(4.71144 -58.2612 0)
(5.32932 -36.1185 0)
(5.53702 -19.3626 0)
(5.3186 -6.88122 0)
(4.73615 1.94429 0)
(3.83341 7.96005 0)
(2.6738 11.6801 0)
(1.40289 13.6263 0)
(-0.00413724 14.2675 0)
(-1.37544 13.9616 0)
(-2.67886 13.0089 0)
(-3.8536 11.6931 0)
(-4.8086 10.2546 0)
(-5.563 8.89714 0)
(-6.10901 7.78885 0)
(-6.42672 7.0367 0)
(-6.56899 6.69625 0)
(-6.58715 6.7897 0)
(-6.48913 7.29729 0)
(-6.29183 8.16006 0)
(-6.02762 9.30565 0)
(-5.71156 10.6574 0)
(-5.34889 12.1206 0)
(-4.95811 13.5809 0)
(-4.56517 14.9277 0)
(-4.18962 16.0723 0)
(-3.84702 16.948 0)
(-3.54989 17.5047 0)
(-3.29718 17.7147 0)
(-3.07373 17.5812 0)
(-2.87224 17.136 0)
(-2.71369 16.4257 0)
(-2.6383 15.5026 0)
(-2.67395 14.4252 0)
(-2.81511 13.2621 0)
(-3.03214 12.0881 0)
(-3.29782 10.9725 0)
(-3.60456 9.97069 0)
(-3.96034 9.12349 0)
(-4.37326 8.46546 0)
(-4.84111 8.03106 0)
(-5.35355 7.85332 0)
(-5.90133 7.95607 0)
(-6.48243 8.34655 0)
(-7.09902 9.0139 0)
(-7.74888 9.93324 0)
(-8.41964 11.0703 0)
(-9.09176 12.3822 0)
(-9.74848 13.8157 0)
(-10.3856 15.3052 0)
(-11.0137 16.776 0)
(-11.6501 18.1534 0)
(-12.307 19.3717 0)
(-12.9838 20.3806 0)
(-13.6718 21.1462 0)
(-14.3712 21.6473 0)
(-15.1051 21.8736 0)
(-15.9187 21.8284 0)
(-16.8593 21.5339 0)
(-17.9516 21.0343 0)
(-19.1898 20.391 0)
(-20.5534 19.6692 0)
(-22.0317 18.9248 0)
(-23.6303 18.1983 0)
(-25.3506 17.5181 0)
(-27.1644 16.9065 0)
(-29.0161 16.378 0)
(-30.8566 15.9306 0)
(-32.6715 15.5386 0)
(-34.4676 15.1575 0)
(-36.2319 14.7373 0)
(-37.9162 14.2312 0)
(-39.4701 13.5962 0)
(-40.878 12.7986 0)
(-42.147 11.8297 0)
(-43.2609 10.7116 0)
(-44.1705 9.47451 0)
(-44.8412 8.13655 0)
(-45.2955 6.72153 0)
(-45.5572 5.27577 0)
(-45.568 3.8214 0)
(-45.3249 2.34265 0)
(-45.0009 0.881354 0)
(-44.529 -0.536125 0)
(-43.9124 -2.00913 0)
(-43.3727 -3.40022 0)
(-42.7956 -4.80244 0)
(-42.296 -6.15869 0)
(-41.8943 -7.39571 0)
(-41.5384 -8.47329 0)
(-41.2842 -9.27567 0)
(-41.0413 -9.69636 0)
(-40.8598 -9.66857 0)
(-40.0299 -9.11696 0)
(-42.6558 -7.86085 0)
(-40.0659 -6.4093 0)
(-41.4078 -5.93624 0)
(0.0211096 -62.7662 0)
(0.364772 -109.382 0)
(0.931553 -88.0437 0)
(0.804487 -58.9452 0)
(0.833533 -36.3835 0)
(0.752581 -19.1883 0)
(0.476153 -6.3393 0)
(-0.0340422 2.90903 0)
(-0.646843 9.2375 0)
(-1.50087 13.2457 0)
(-2.44021 15.3835 0)
(-3.51007 16.0778 0)
(-4.5959 15.7096 0)
(-5.68053 14.6121 0)
(-6.68808 13.0936 0)
(-7.51887 11.4131 0)
(-8.18688 9.79181 0)
(-8.69132 8.41267 0)
(-9.01667 7.39571 0)
(-9.19382 6.81067 0)
(-9.24886 6.69394 0)
(-9.1822 7.03569 0)
(-9.00237 7.77847 0)
(-8.72656 8.8421 0)
(-8.37063 10.137 0)
(-7.9586 11.5575 0)
(-7.51785 12.9856 0)
(-7.06187 14.3135 0)
(-6.59754 15.4593 0)
(-6.14542 16.3618 0)
(-5.7324 16.9713 0)
(-5.36505 17.2551 0)
(-5.02883 17.208 0)
(-4.72038 16.8548 0)
(-4.46979 16.24 0)
(-4.32187 15.4174 0)
(-4.29806 14.4473 0)
(-4.3822 13.3967 0)
(-4.54258 12.3349 0)
(-4.76248 11.3244 0)
(-5.04828 10.4151 0)
(-5.41264 9.64695 0)
(-5.85481 9.05727 0)
(-6.35746 8.68491 0)
(-6.89965 8.56579 0)
(-7.47083 8.72352 0)
(-8.07242 9.16253 0)
(-8.70696 9.86817 0)
(-9.36562 10.8123 0)
(-10.0256 11.9584 0)
(-10.6598 13.2632 0)
(-11.2501 14.6751 0)
(-11.7967 16.1334 0)
(-12.3143 17.5714 0)
(-12.8211 18.9235 0)
(-13.3258 20.1325 0)
(-13.8248 21.1544 0)
(-14.3125 21.959 0)
(-14.7985 22.5273 0)
(-15.319 22.8509 0)
(-15.9282 22.9339 0)
(-16.6743 22.7972 0)
(-17.5769 22.4793 0)
(-18.625 22.0305 0)
(-19.7982 21.5027 0)
(-21.0901 20.9392 0)
(-22.5082 20.3723 0)
(-24.0505 19.8272 0)
(-25.6844 19.3234 0)
(-27.3569 18.8688 0)
(-29.0264 18.4498 0)
(-30.6794 18.0301 0)
(-32.3099 17.5632 0)
(-33.8913 17.0096 0)
(-35.3805 16.3393 0)
(-36.7487 15.5222 0)
(-37.9884 14.5251 0)
(-39.0862 13.3297 0)
(-40.0131 11.9517 0)
(-40.7516 10.4317 0)
(-41.303 8.80244 0)
(-41.6597 7.08311 0)
(-41.8157 5.32551 0)
(-41.7989 3.61172 0)
(-41.6285 1.94285 0)
(-41.3221 0.291952 0)
(-40.9571 -1.22246 0)
(-40.5627 -2.6983 0)
(-40.1754 -4.12975 0)
(-39.8165 -5.45554 0)
(-39.5291 -6.74595 0)
(-39.303 -7.86911 0)
(-39.1264 -8.82973 0)
(-39.0188 -9.49642 0)
(-38.9572 -9.81369 0)
(-38.9901 -9.70328 0)
(-38.296 -9.06683 0)
(-41.1205 -7.68676 0)
(-38.6378 -6.07226 0)
(-40.0364 -5.56512 0)
(-0.55338 -62.3651 0)
(-1.40761 -108.893 0)
(-2.27061 -87.4656 0)
(-3.58685 -58.4064 0)
(-4.17432 -35.9681 0)
(-4.60442 -18.7399 0)
(-4.87057 -5.90058 0)
(-5.14634 3.53631 0)
(-5.40035 10.0355 0)
(-5.75866 14.2151 0)
(-6.24015 16.5205 0)
(-6.89374 17.325 0)
(-7.58489 16.9903 0)
(-8.31219 15.8579 0)
(-9.02883 14.2441 0)
(-9.65422 12.4131 0)
(-10.1928 10.5975 0)
(-10.6352 9.00004 0)
(-10.9586 7.7631 0)
(-11.1659 6.97471 0)
(-11.2591 6.68131 0)
(-11.2382 6.87415 0)
(-11.1106 7.49021 0)
(-10.8805 8.44174 0)
(-10.5573 9.63527 0)
(-10.171 10.9678 0)
(-9.747 12.3281 0)
(-9.28354 13.6144 0)
(-8.77871 14.7466 0)
(-8.26337 15.6624 0)
(-7.78197 16.3094 0)
(-7.34893 16.6516 0)
(-6.94715 16.6804 0)
(-6.57097 16.4185 0)
(-6.25325 15.9097 0)
(-6.04138 15.2079 0)
(-5.95467 14.3711 0)
(-5.97392 13.4598 0)
(-6.07038 12.5344 0)
(-6.23686 11.65 0)
(-6.48842 10.8537 0)
(-6.8376 10.1874 0)
(-7.27429 9.69174 0)
(-7.76952 9.40691 0)
(-8.29615 9.36696 0)
(-8.84465 9.5914 0)
(-9.42003 10.0804 0)
(-10.0249 10.8162 0)
(-10.6448 11.7686 0)
(-11.2488 12.9005 0)
(-11.8033 14.1696 0)
(-12.2893 15.5287 0)
(-12.7098 16.9241 0)
(-13.0839 18.2984 0)
(-13.4315 19.5951 0)
(-13.761 20.765 0)
(-14.0678 21.7705 0)
(-14.3481 22.5865 0)
(-14.6172 23.199 0)
(-14.9176 23.6034 0)
(-15.3074 23.8054 0)
(-15.8339 23.8234 0)
(-16.5134 23.6891 0)
(-17.3348 23.4421 0)
(-18.2815 23.1205 0)
(-19.3504 22.7536 0)
(-20.5461 22.3602 0)
(-21.8574 21.9538 0)
(-23.2469 21.5443 0)
(-24.6698 21.1339 0)
(-26.1024 20.7092 0)
(-27.5421 20.2398 0)
(-28.9748 19.6876 0)
(-30.3553 19.017 0)
(-31.6336 18.197 0)
(-32.7955 17.2 0)
(-33.8552 16.0046 0)
(-34.8038 14.6022 0)
(-35.5942 13.0006 0)
(-36.1994 11.2281 0)
(-36.6533 9.33504 0)
(-36.9792 7.37691 0)
(-37.1267 5.40147 0)
(-37.105 3.47322 0)
(-37.0393 1.65243 0)
(-36.8986 -0.073167 0)
(-36.6773 -1.67716 0)
(-36.4988 -3.14272 0)
(-36.3376 -4.52833 0)
(-36.2 -5.79968 0)
(-36.127 -6.97897 0)
(-36.0973 -8.00055 0)
(-36.1234 -8.85243 0)