/*--------------------------------*- C++ -*----------------------------------*\
| =========                 |                                                 |
| \\      /  F ield         | OpenFOAM: The Open Source CFD Toolbox           |
|  \\    /   O peration     | Version:  2406                                  |
|   \\  /    A nd           | Website:  www.openfoam.com                      |
|    \\/     M anipulation  |                                                 |
\*---------------------------------------------------------------------------*/
FoamFile
{
    version     2.0;
    format      ascii;
    arch        "LSB;label=32;scalar=64";
    class       surfaceScalarField;
    location    "0.0004";
    object      phi;
}
// * * * * * * * * * * * * * * * * * * * * * * * * * * * * * * * * * * * * * //

dimensions      [0 3 -1 0 0 0 0];

oriented        oriented;

internalField   nonuniform List<scalar> 
9850
(
1.32404e-12
-1.29083e-12
1.26785e-11
-1.13543e-11
2.55197e-11
-1.28397e-11
3.65903e-11
-1.10719e-11
4.62067e-11
-9.61681e-12
5.4652e-11
-8.44507e-12
6.23375e-11
-7.68601e-12
6.92192e-11
-6.88214e-12
7.57091e-11
-6.48937e-12
8.1692e-11
-5.98156e-12
8.71923e-11
-5.50006e-12
9.23329e-11
-5.14024e-12
9.73153e-11
-4.98232e-12
1.02049e-10
-4.73257e-12
1.06507e-10
-4.45939e-12
1.10987e-10
-4.47901e-12
1.15529e-10
-4.5423e-12
1.19804e-10
-4.27492e-12
1.23674e-10
-3.86989e-12
1.2721e-10
-3.53623e-12
1.30235e-10
-3.02454e-12
1.32402e-10
-2.16606e-12
1.33597e-10
-1.19488e-12
1.33849e-10
-2.52523e-13
1.32969e-10
8.80525e-13
1.30574e-10
2.39555e-12
1.26405e-10
4.16867e-12
1.20412e-10
5.99357e-12
1.1258e-10
7.83252e-12
1.02907e-10
9.67265e-12
9.16117e-11
1.1295e-11
7.92585e-11
1.23538e-11
6.65905e-11
1.26681e-11
5.42607e-11
1.23296e-11
4.27362e-11
1.15242e-11
3.24101e-11
1.03253e-11
2.3688e-11
8.72066e-12
1.69203e-11
6.76625e-12
1.22593e-11
4.66045e-12
9.6341e-12
2.6249e-12
8.89419e-12
7.39291e-13
9.97317e-12
-1.07966e-12
1.29055e-11
-2.93245e-12
1.76833e-11
-4.77718e-12
2.40962e-11
-6.41244e-12
3.17124e-11
-7.61619e-12
4.0027e-11
-8.31495e-12
4.86695e-11
-8.64276e-12
5.75179e-11
-8.84915e-12
6.66519e-11
-9.13545e-12
7.61926e-11
-9.54254e-12
8.6151e-11
-9.95992e-12
9.63814e-11
-1.02314e-11
1.06653e-10
-1.02721e-11
1.16772e-10
-1.01198e-11
1.26671e-10
-9.89977e-12
1.36409e-10
-9.73807e-12
1.46093e-10
-9.68253e-12
1.55769e-10
-9.67488e-12
1.65356e-10
-9.58598e-12
1.74647e-10
-9.28992e-12
1.8338e-10
-8.73352e-12
1.9134e-10
-7.95962e-12
1.98409e-10
-7.06814e-12
2.04546e-10
-6.13596e-12
2.09693e-10
-5.14678e-12
2.13676e-10
-3.98275e-12
2.16169e-10
-2.49268e-12
2.16768e-10
-5.98774e-13
2.1511e-10
1.65723e-12
2.10982e-10
4.12833e-12
2.04283e-10
6.69742e-12
1.94908e-10
9.37437e-12
1.82624e-10
1.22826e-11
1.67099e-10
1.55254e-11
1.48059e-10
1.90402e-11
1.25474e-10
2.25858e-11
9.95761e-11
2.58983e-11
7.06913e-11
2.88857e-11
3.90107e-11
3.16816e-11
4.50114e-12
3.45102e-11
-3.3024e-11
3.75254e-11
-7.38311e-11
4.0807e-11
-1.18329e-10
4.44974e-11
-1.67187e-10
4.88577e-11
-2.21321e-10
5.41345e-11
-2.81746e-10
6.04252e-11
-3.49503e-10
6.7757e-11
-4.25738e-10
7.6235e-11
-5.11714e-10
8.59761e-11
-6.08706e-10
9.69929e-11
-7.18016e-10
1.09311e-10
-8.41078e-10
1.23062e-10
-9.7957e-10
1.38492e-10
-1.13543e-09
1.55856e-10
-1.31094e-09
1.75513e-10
-1.51123e-09
2.00289e-10
-1.74046e-09
2.29227e-10
-1.99635e-09
2.55889e-10
3.0012e-10
1.59914e-11
-1.72474e-11
4.71326e-11
-4.24961e-11
7.57079e-11
-4.14144e-11
9.83329e-11
-3.36969e-11
1.15619e-10
-2.69028e-11
1.28504e-10
-2.13301e-11
1.38103e-10
-1.72849e-11
1.4536e-10
-1.41396e-11
1.50789e-10
-1.19169e-11
1.55031e-10
-1.02244e-11
1.58568e-10
-9.0353e-12
1.61536e-10
-8.10974e-12
1.64008e-10
-7.45479e-12
1.66388e-10
-7.11065e-12
1.68796e-10
-6.86938e-12
1.70901e-10
-6.58425e-12
1.72673e-10
-6.31318e-12
1.74376e-10
-5.97986e-12
1.75895e-10
-5.38814e-12
1.76844e-10
-4.48453e-12
1.77133e-10
-3.31339e-12
1.76846e-10
-1.87954e-12
1.75811e-10
-1.59413e-13
1.73681e-10
1.87858e-12
1.70267e-10
4.29376e-12
1.65562e-10
7.10076e-12
1.5952e-10
1.02109e-11
1.52044e-10
1.34706e-11
1.4316e-10
1.67173e-11
1.33092e-10
1.97412e-11
1.22146e-10
2.22407e-11
1.1061e-10
2.38905e-11
9.87891e-11
2.44893e-11
8.70887e-11
2.40308e-11
7.59717e-11
2.2642e-11
6.58422e-11
2.04557e-11
5.69784e-11
1.75858e-11
4.95685e-11
1.41782e-11
4.3788e-11
1.04432e-11
3.98085e-11
6.60597e-12
3.77274e-11
2.82135e-12
3.74994e-11
-8.50639e-13
3.89482e-11
-4.37992e-12
4.18503e-11
-7.67786e-12
4.60207e-11
-1.05812e-11
5.13312e-11
-1.29244e-11
5.76693e-11
-1.465e-11
6.48866e-11
-1.58565e-11
7.27872e-11
-1.67459e-11
8.1165e-11
-1.75091e-11
8.98578e-11
-1.82309e-11
9.87747e-11
-1.88726e-11
1.07881e-10
-1.93344e-11
1.17153e-10
-1.95435e-11
1.26542e-10
-1.95096e-11
1.35956e-10
-1.93159e-11
1.45277e-10
-1.9061e-11
1.54383e-10
-1.87919e-11
1.63174e-10
-1.84685e-11
1.71565e-10
-1.79803e-11
1.79476e-10
-1.72024e-11
1.86798e-10
-1.6057e-11
1.93382e-10
-1.4544e-11
1.99033e-10
-1.2719e-11
2.03526e-10
-1.06301e-11
2.06632e-10
-8.25407e-12
2.08128e-10
-5.47849e-12
2.07789e-10
-2.15271e-12
2.05371e-10
1.82032e-12
2.00613e-10
6.41641e-12
1.93239e-10
1.15029e-11
1.83009e-10
1.69291e-11
1.69758e-10
2.26264e-11
1.53419e-10
2.86234e-11
1.33987e-10
3.49585e-11
1.1146e-10
4.1568e-11
8.57768e-11
4.82692e-11
5.67972e-11
5.48777e-11
2.43269e-11
6.1355e-11
-1.18347e-11
6.78422e-11
-5.18764e-11
7.45521e-11
-9.60082e-11
8.16583e-11
-1.44518e-10
8.93188e-11
-1.97803e-10
9.77838e-11
-2.56347e-10
1.07404e-10
-3.207e-10
1.18488e-10
-3.9148e-10
1.31204e-10
-4.69403e-10
1.45679e-10
-5.55268e-10
1.62098e-10
-6.49885e-10
1.80592e-10
-7.54066e-10
2.01174e-10
-8.68758e-10
2.24004e-10
-9.95054e-10
2.49359e-10
-1.13434e-09
2.77778e-10
-1.289e-09
3.10521e-10
-1.46309e-09
3.496e-10
-1.66382e-09
4.01019e-10
-1.91517e-09
4.80575e-10
-2.23001e-09
5.70735e-10
6.20327e-10
2.55335e-11
-4.27471e-11
7.05445e-11
-8.75066e-11
1.08646e-10
-7.95138e-11
1.3637e-10
-6.14212e-11
1.55671e-10
-4.62044e-11
1.68725e-10
-3.4383e-11
1.76561e-10
-2.51204e-11
1.80868e-10
-1.84474e-11
1.82473e-10
-1.35194e-11
1.8242e-10
-1.01725e-11
1.81081e-10
-7.69554e-12
1.79116e-10
-6.14437e-12
1.769e-10
-5.23816e-12
1.74354e-10
-4.56595e-12
1.71625e-10
-4.14063e-12
1.69004e-10
-3.96261e-12
1.66426e-10
-3.73427e-12
1.63678e-10
-3.23129e-12
1.60788e-10
-2.49898e-12
1.57866e-10
-1.56182e-12
1.54825e-10
-2.71399e-13
1.51476e-10
1.46912e-12
1.47727e-10
3.58949e-12
1.43573e-10
6.03306e-12
1.39005e-10
8.86207e-12
1.33998e-10
1.21076e-11
1.28569e-10
1.56389e-11
1.22802e-10
1.92381e-11
1.16807e-10
2.27124e-11
1.1068e-10
2.58686e-11
1.04485e-10
2.84363e-11
9.82666e-11
3.01091e-11
9.20715e-11
3.0684e-11
8.5961e-11
3.01402e-11
8.00205e-11
2.85813e-11
7.43488e-11
2.61266e-11
6.90557e-11
2.28783e-11
6.4261e-11
1.89726e-11
6.00841e-11
1.46204e-11
5.66197e-11
1.0071e-11
5.39125e-11
5.52916e-12
5.19501e-11
1.11225e-12
5.06858e-11
-3.11512e-12
5.00809e-11
-7.07252e-12
5.01303e-11
-1.06306e-11
5.08594e-11
-1.36544e-11
5.2283e-11
-1.60751e-11
5.4362e-11
-1.79375e-11
5.69922e-11
-1.93781e-11
6.00327e-11
-2.05512e-11
6.33542e-11
-2.15535e-11
6.68756e-11
-2.23944e-11
7.05653e-11
-2.3024e-11
7.44115e-11
-2.33892e-11
7.83819e-11
-2.34788e-11
8.23994e-11
-2.33316e-11
8.63485e-11
-2.30081e-11
9.01046e-11
-2.25465e-11
9.35661e-11
-2.19294e-11
9.66666e-11
-2.10809e-11
9.93592e-11
-1.9895e-11
1.01585e-10
-1.82819e-11
1.03246e-10
-1.62038e-11
1.04204e-10
-1.36767e-11
1.04306e-10
-1.0732e-11
1.03413e-10
-7.36223e-12
1.01426e-10
-3.49237e-12
9.82763e-11
9.95859e-13
9.39017e-11
6.19353e-12
8.82118e-11
1.21043e-11
8.10708e-11
1.86413e-11
7.23043e-11
2.56933e-11
6.1731e-11
3.31982e-11
4.92053e-11
4.11487e-11
3.46464e-11
4.95176e-11
1.80328e-11
5.81818e-11
-6.44057e-13
6.69462e-11
-2.1438e-11
7.56717e-11
-4.44717e-11
8.43882e-11
-6.99069e-11
9.32761e-11
-9.79032e-11
1.02547e-10
-1.28624e-10
1.12378e-10
-1.62277e-10
1.2297e-10
-1.99099e-10
1.34606e-10
-2.39283e-10
1.47588e-10
-2.82932e-10
1.62138e-10
-3.30123e-10
1.78395e-10
-3.80938e-10
1.96494e-10
-4.354e-10
2.16561e-10
-4.93473e-10
2.38665e-10
-5.55187e-10
2.62888e-10
-6.20704e-10
2.89521e-10
-6.90354e-10
3.19006e-10
-7.64889e-10
3.52312e-10
-8.46032e-10
3.91662e-10
-9.3701e-10
4.40577e-10
-1.04344e-09
5.07449e-10
-1.17491e-09
6.12043e-10
-1.34005e-09
7.35872e-10
7.9464e-10
3.09179e-11
-7.36307e-11
8.3923e-11
-1.40511e-10
1.26873e-10
-1.22464e-10
1.56706e-10
-9.12537e-11
1.76405e-10
-6.59031e-11
1.88314e-10
-4.62924e-11
1.94416e-10
-3.12217e-11
1.96327e-10
-2.03579e-11
1.95122e-10
-1.23148e-11
1.91852e-10
-6.90163e-12
1.87368e-10
-3.21113e-12
1.81984e-10
-7.61701e-13
1.76049e-10
6.97832e-13
1.70049e-10
1.43323e-12
1.64127e-10
1.78033e-12
1.58166e-10
1.99959e-12
1.52251e-10
2.18055e-12
1.46585e-10
2.43445e-12
1.41152e-10
2.93499e-12
1.35803e-10
3.78756e-12
1.30515e-10
5.01575e-12
1.25359e-10
6.62564e-12
1.20323e-10
8.62544e-12
1.15337e-10
1.10184e-11
1.10411e-10
1.37873e-11
1.05651e-10
1.68676e-11
1.0115e-10
2.01409e-11
9.69329e-11
2.34548e-11
9.30149e-11
2.663e-11
8.94389e-11
2.9445e-11
8.62299e-11
3.16469e-11
8.33241e-11
3.30164e-11
8.05785e-11
3.34304e-11
7.78557e-11
3.2864e-11
7.50944e-11
3.13442e-11
7.23022e-11
2.89202e-11
6.94984e-11
2.5683e-11
6.66771e-11
2.1795e-11
6.38222e-11
1.74768e-11
6.09454e-11
1.29491e-11
5.80985e-11
8.37674e-12
5.53499e-11
3.86154e-12
5.27528e-11
-5.16749e-13
5.03374e-11
-4.65531e-12
4.81316e-11
-8.42302e-12
4.61794e-11
-1.17008e-11
4.45394e-11
-1.44337e-11
4.32573e-11
-1.66539e-11
4.23373e-11
-1.84564e-11
4.1734e-11
-1.99464e-11
4.13723e-11
-2.11908e-11
4.11794e-11
-2.22011e-11
4.11047e-11
-2.29497e-11
4.11178e-11
-2.34032e-11
4.11893e-11
-2.35514e-11
4.12725e-11
-2.34157e-11
4.12995e-11
-2.30357e-11
4.11922e-11
-2.24396e-11
4.0879e-11
-2.16164e-11
4.03035e-11
-2.05055e-11
3.94215e-11
-1.90131e-11
3.81903e-11
-1.7051e-11
3.65591e-11
-1.4573e-11
3.44648e-11
-1.15829e-11
3.1835e-11
-8.10261e-12
2.85938e-11
-4.12149e-12
2.46713e-11
4.29658e-13
2.00171e-11
5.64924e-12
1.46138e-11
1.15959e-11
8.48122e-12
1.82359e-11
1.65899e-12
2.54627e-11
-5.82891e-12
3.31803e-11
-1.40065e-11
4.13748e-11
-2.29529e-11
5.00943e-11
-3.27821e-11
5.93462e-11
-4.36204e-11
6.90193e-11
-5.56027e-11
7.89271e-11
-6.88791e-11
8.89467e-11
-8.36005e-11
9.91091e-11
-9.98763e-11
1.09552e-10
-1.17745e-10
1.20416e-10
-1.37201e-10
1.31835e-10
-1.58239e-10
1.44009e-10
-1.80846e-10
1.57212e-10
-2.04931e-10
1.71673e-10
-2.30324e-10
1.8753e-10
-2.56853e-10
2.04922e-10
-2.84345e-10
2.23986e-10
-3.12543e-10
2.4476e-10
-3.41207e-10
2.6733e-10
-3.70197e-10
2.9188e-10
-3.99317e-10
3.18643e-10
-4.28741e-10
3.48431e-10
-4.58971e-10
3.82544e-10
-4.90783e-10
4.23472e-10
-5.26069e-10
4.75864e-10
-5.66151e-10
5.47531e-10
-6.10392e-10
6.56283e-10
-6.56676e-10
7.82156e-10
8.42401e-10
3.34686e-11
-1.07066e-10
9.02835e-11
-1.97324e-10
1.35186e-10
-1.67366e-10
1.64931e-10
-1.20997e-10
1.83625e-10
-8.45984e-11
1.94034e-10
-5.6701e-11
1.98515e-10
-3.57032e-11
1.98378e-10
-2.02199e-11
1.95281e-10
-9.21817e-12
1.89922e-10
-1.54201e-12
1.83169e-10
3.54191e-12
1.75686e-10
6.72009e-12
1.67814e-10
8.56966e-12
1.59713e-10
9.53518e-12
1.51594e-10
9.8984e-12
1.43691e-10
9.90232e-12
1.36078e-10
9.79487e-12
1.28729e-10
9.78387e-12
1.21687e-10
9.97648e-12
1.15036e-10
1.04382e-11
1.08782e-10
1.12705e-11
1.02868e-10
1.254e-11
9.7286e-11
1.4206e-11
9.21048e-11
1.61996e-11
8.73886e-11
1.85038e-11
8.31582e-11
2.10974e-11
7.94288e-11
2.38694e-11
7.62488e-11
2.66346e-11
7.3673e-11
2.92062e-11
7.16916e-11
3.14269e-11
7.02022e-11
3.31366e-11
6.90427e-11
3.4176e-11
6.80579e-11
3.44155e-11
6.7133e-11
3.37895e-11
6.61767e-11
3.23009e-11
6.50905e-11
3.00067e-11
6.37658e-11
2.70086e-11
6.2115e-11
2.34476e-11
6.01048e-11
1.94887e-11
5.77626e-11
1.52922e-11
5.51489e-11
1.09902e-11
5.23219e-11
6.68824e-12
4.93199e-11
2.48538e-12
4.61735e-11
-1.50904e-12
4.29314e-11
-5.18182e-12
3.96719e-11
-8.44269e-12
3.64876e-11
-1.12506e-11
3.34541e-11
-1.36206e-11
3.06038e-11
-1.56056e-11
2.79238e-11
-1.72656e-11
2.5374e-11
-1.86398e-11
2.29112e-11
-1.97368e-11
2.05043e-11
-2.05412e-11
1.81346e-11
-2.1032e-11
1.57853e-11
-2.12011e-11
1.34311e-11
-2.10612e-11
1.1034e-11
-2.06389e-11
8.54703e-12
-1.99532e-11
5.9211e-12
-1.89907e-11
3.11084e-12
-1.76949e-11
7.94146e-14
-1.5981e-11
-3.19745e-12
-1.37738e-11
-6.7294e-12
-1.10416e-11
-1.05151e-11
-7.79839e-12
-1.45526e-11
-4.0664e-12
-1.88504e-11
1.75272e-13
-2.34298e-11
5.00803e-12
-2.83132e-11
1.05312e-11
-3.35111e-11
1.6792e-11
-3.90173e-11
2.37408e-11
-4.4823e-11
3.12682e-11
-5.09297e-11
3.92877e-11
-5.7342e-11
4.77879e-11
-6.40419e-11
5.67947e-11
-7.09829e-11
6.62877e-11
-7.81328e-11
7.61694e-11
-8.55402e-11
8.63337e-11
-9.33525e-11
9.67574e-11
-1.01748e-10
1.07504e-10
-1.1084e-10
1.18644e-10
-1.20648e-10
1.30224e-10
-1.31142e-10
1.42328e-10
-1.42272e-10
1.5514e-10
-1.53921e-10
1.68862e-10
-1.65857e-10
1.8361e-10
-1.77783e-10
1.99456e-10
-1.89403e-10
2.16543e-10
-2.00422e-10
2.35006e-10
-2.10506e-10
2.54843e-10
-2.19407e-10
2.7623e-10
-2.2696e-10
2.99431e-10
-2.33006e-10
3.24687e-10
-2.37732e-10
3.53157e-10
-2.41195e-10
3.86006e-10
-2.43825e-10
4.261e-10
-2.45557e-10
4.77599e-10
-2.45127e-10
5.47099e-10
-2.37223e-10
6.4838e-10
-2.17025e-10
7.61958e-10
8.16475e-10
3.40255e-11
-1.41056e-10
9.10345e-11
-2.54332e-10
1.35151e-10
-2.11482e-10
1.63692e-10
-1.49539e-10
1.80847e-10
-1.01753e-10
1.89547e-10
-6.54006e-11
1.92268e-10
-3.84252e-11
1.9063e-10
-1.8582e-11
1.85988e-10
-4.57468e-12
1.79324e-10
5.12006e-12
1.7136e-10
1.1506e-11
1.62624e-10
1.54569e-11
1.53524e-10
1.76688e-11
1.44406e-10
1.86529e-11
1.35445e-10
1.88599e-11
1.26702e-10
1.86454e-11
1.18255e-10
1.82424e-11
1.102e-10
1.78387e-11
1.02599e-10
1.75771e-11
9.54751e-11
1.75621e-11
8.88518e-11
1.78934e-11
8.27727e-11
1.86189e-11
7.72713e-11
1.97075e-11
7.23516e-11
2.11193e-11
6.80141e-11
2.28407e-11
6.4294e-11
2.48171e-11
6.12521e-11
2.69119e-11
5.8922e-11
2.89655e-11
5.72707e-11
3.08576e-11
5.62054e-11
3.24926e-11
5.56114e-11
3.37321e-11
5.53759e-11
3.44133e-11
5.5383e-11
3.4409e-11
5.54957e-11
3.36768e-11
5.55518e-11
3.2245e-11
5.53894e-11
3.01702e-11
5.48818e-11
2.75176e-11
5.39595e-11
2.43711e-11
5.26041e-11
2.08449e-11
5.08251e-11
1.70717e-11
4.86376e-11
1.31784e-11
4.60559e-11
9.27121e-12
4.31026e-11
5.43998e-12
3.98234e-11
1.77093e-12
3.62916e-11
-1.65002e-12
3.25978e-11
-4.74882e-12
2.88282e-11
-7.48043e-12
2.50457e-11
-9.8374e-12
2.12831e-11
-1.18427e-11
1.7548e-11
-1.35305e-11
1.38346e-11
-1.49266e-11
1.01346e-11
-1.60366e-11
6.44137e-12
-1.68475e-11
2.7497e-12
-1.73399e-11
-9.47789e-13
-1.75034e-11
-4.66287e-12
-1.73463e-11
-8.41247e-12
-1.68896e-11
-1.22189e-11
-1.6147e-11
-1.61099e-11
-1.50999e-11
-2.01152e-11
-1.36895e-11
-2.42596e-11
-1.18366e-11
-2.85531e-11
-9.48033e-12
-3.29876e-11
-6.60711e-12
-3.75436e-11
-3.2426e-12
-4.22032e-11
5.9302e-13
-4.6957e-11
4.9288e-12
-5.17919e-11
9.84249e-12
-5.66706e-11
1.54095e-11
-6.15213e-11
2.16419e-11
-6.62618e-11
2.84809e-11
-7.08486e-11
3.58551e-11
-7.53077e-11
4.37476e-11
-7.97107e-11
5.21919e-11
-8.41076e-11
6.11922e-11
-8.84794e-11
7.06596e-11
-9.27645e-11
8.04547e-11
-9.6935e-11
9.05044e-11
-1.01031e-10
1.00854e-10
-1.05114e-10
1.11586e-10
-1.09194e-10
1.22724e-10
-1.13233e-10
1.34262e-10
-1.17186e-10
1.4628e-10
-1.20984e-10
1.58936e-10
-1.2447e-10
1.72348e-10
-1.27421e-10
1.8656e-10
-1.29609e-10
2.01644e-10
-1.30771e-10
2.17705e-10
-1.30596e-10
2.34832e-10
-1.28846e-10
2.53093e-10
-1.25238e-10
2.72623e-10
-1.19622e-10
2.93815e-10
-1.11879e-10
3.16945e-10
-1.02014e-10
3.4329e-10
-8.98753e-11
3.73867e-10
-7.5295e-11
4.1152e-10
-5.71823e-11
4.59486e-10
-3.30083e-11
5.22926e-10
4.06936e-12
6.11303e-10
5.85517e-11
7.07476e-10
7.53411e-10
3.25807e-11
-1.73602e-10
8.69005e-11
-3.08652e-10
1.28428e-10
-2.53008e-10
1.54496e-10
-1.75609e-10
1.69401e-10
-1.16657e-10
1.76438e-10
-7.24378e-11
1.77636e-10
-3.96231e-11
1.74985e-10
-1.5932e-11
1.69452e-10
9.58738e-13
1.62122e-10
1.24495e-11
1.53611e-10
2.00169e-11
1.44453e-10
2.46133e-11
1.35036e-10
2.70888e-11
1.25596e-10
2.80927e-11
1.16347e-10
2.81078e-11
1.07462e-10
2.7531e-11
9.9019e-11
2.66871e-11
9.10301e-11
2.58282e-11
8.35214e-11
2.50843e-11
7.65552e-11
2.45276e-11
7.01848e-11
2.42653e-11
6.4428e-11
2.43765e-11
5.92922e-11
2.48427e-11
5.4802e-11
2.56089e-11
5.09986e-11
2.66445e-11
4.79141e-11
2.79023e-11
4.55467e-11
2.92793e-11
4.38571e-11
3.06546e-11
4.27848e-11
3.19299e-11
4.22688e-11
3.30098e-11
4.22364e-11
3.37656e-11
4.25869e-11
3.40627e-11
4.31777e-11
3.38174e-11
4.38378e-11
3.30169e-11
4.43988e-11
3.16851e-11
4.47263e-11
2.98439e-11
4.47295e-11
2.75147e-11
4.4351e-11
2.47496e-11
4.35486e-11
2.16475e-11
4.22874e-11
1.83333e-11
4.05454e-11
1.49209e-11
3.83248e-11
1.14919e-11
3.56583e-11
8.10651e-12
3.26036e-11
4.82558e-12
2.92315e-11
1.72242e-12
2.56114e-11
-1.1281e-12
2.18031e-11
-3.67136e-12
1.78545e-11
-5.88798e-12
1.38034e-11
-7.79082e-12
9.68032e-12
-9.40666e-12
5.50895e-12
-1.07542e-11
1.30434e-12
-1.18309e-11
-2.92793e-12
-1.26146e-11
-7.18962e-12
-1.30784e-11
-1.14852e-11
-1.32086e-11
-1.58175e-11
-1.30147e-11
-2.0188e-11
-1.25193e-11
-2.4601e-11
-1.17338e-11
-2.90666e-11
-1.0634e-11
-3.35977e-11
-9.15866e-12
-3.81984e-11
-7.2367e-12
-4.28531e-11
-4.82657e-12
-4.75257e-11
-1.93489e-12
-5.2176e-11
1.40795e-12
-5.67795e-11
5.19687e-12
-6.13343e-11
9.48342e-12
-6.58441e-11
1.43517e-11
-7.02869e-11
1.98518e-11
-7.45965e-11
2.5952e-11
-7.86779e-11
3.25634e-11
-8.24457e-11
3.9624e-11
-8.58531e-11
4.7156e-11
-8.88873e-11
5.52272e-11
-9.15426e-11
6.38485e-11
-9.3808e-11
7.29253e-11
-9.56826e-11
8.23289e-11
-9.71898e-11
9.20115e-11
-9.83551e-11
1.0202e-10
-9.91641e-11
1.12396e-10
-9.95559e-11
1.23116e-10
-9.94658e-11
1.34172e-10
-9.88421e-11
1.45655e-10
-9.75873e-11
1.57681e-10
-9.55087e-11
1.70269e-10
-9.2386e-11
1.83438e-10
-8.80574e-11
1.97315e-10
-8.23166e-11
2.11964e-10
-7.48624e-11
2.27377e-10
-6.56187e-11
2.43849e-10
-5.43259e-11
2.6133e-10
-4.07876e-11
2.80276e-10
-2.52117e-11
3.0137e-10
-6.93152e-12
3.25008e-10
1.37843e-11
3.5315e-10
3.79402e-11
3.87366e-10
6.68545e-11
4.30573e-10
1.03662e-10
4.86119e-10
1.54425e-10
5.6054e-10
2.22765e-10
6.39136e-10
6.76318e-10
2.95626e-11
-2.03131e-10
7.86938e-11
-3.57781e-10
1.15625e-10
-2.89941e-10
1.38427e-10
-1.9841e-10
1.50934e-10
-1.29164e-10
1.56162e-10
-7.76682e-11
1.56175e-10
-3.96353e-11
1.52656e-10
-1.24122e-11
1.46731e-10
6.88289e-12
1.3926e-10
1.99198e-11
1.30869e-10
2.84097e-11
1.21986e-10
3.34951e-11
1.12952e-10
3.61239e-11
1.03975e-10
3.70691e-11
9.51899e-11
3.68932e-11
8.67303e-11
3.59917e-11
7.8724e-11
3.46928e-11
7.12548e-11
3.32968e-11
6.43536e-11
3.19861e-11
5.80218e-11
3.08601e-11
5.22646e-11
3.00224e-11
4.71125e-11
2.95284e-11
4.2613e-11
2.93434e-11
3.88011e-11
2.94227e-11
3.56825e-11
2.97636e-11
3.32392e-11
3.03449e-11
3.14433e-11
3.10753e-11
3.02653e-11
3.18339e-11
2.96723e-11
3.25242e-11
2.96155e-11
3.30672e-11
3.001e-11
3.33707e-11
3.07316e-11
3.33405e-11
3.16326e-11
3.29163e-11
3.25683e-11
3.20817e-11
3.34165e-11
3.08372e-11
3.40799e-11
2.91802e-11
3.44764e-11
2.7118e-11
3.45285e-11
2.46981e-11
3.4165e-11
2.20122e-11
3.3333e-11
1.91662e-11
3.20112e-11
1.6243e-11
3.02127e-11
1.32908e-11
2.79756e-11
1.03445e-11
2.53483e-11
7.45415e-12
2.23783e-11
4.69333e-12
1.91088e-11
2.14172e-12
1.55808e-11
-1.43513e-13
1.18374e-11
-2.1445e-12
7.92351e-12
-3.8766e-12
3.88264e-12
-5.36508e-12
-2.50547e-13
-6.6202e-12
-4.45528e-12
-7.62555e-12
-8.72416e-12
-8.34553e-12
-1.30571e-11
-8.74564e-12
-1.74521e-11
-8.81412e-12
-2.19004e-11
-8.56682e-12
-2.63896e-11
-8.03033e-12
-3.09111e-11
-7.21228e-12
-3.5465e-11
-6.08014e-12
-4.00552e-11
-4.5687e-12
-4.46766e-11
-2.61559e-12
-4.93041e-11
-1.99266e-13
-5.38934e-11
2.6546e-12
-5.83943e-11
5.90934e-12
-6.27655e-11
9.56858e-12
-6.69769e-11
1.36949e-11
-7.09964e-11
1.83705e-11
-7.47762e-11
2.36309e-11
-7.82583e-11
2.94341e-11
-8.13972e-11
3.5703e-11
-8.41738e-11
4.24014e-11
-8.65756e-11
4.9558e-11
-8.85557e-11
5.72076e-11
-9.00223e-11
6.53159e-11
-9.08837e-11
7.37876e-11
-9.11098e-11
8.2555e-11
-9.0732e-11
9.16335e-11
-8.97738e-11
1.01062e-10
-8.81945e-11
1.10816e-10
-8.59166e-11
1.20836e-10
-8.28847e-11
1.31139e-10
-7.90535e-11
1.41824e-10
-7.4324e-11
1.5295e-10
-6.85369e-11
1.64482e-10
-6.15213e-11
1.76423e-10
-5.31176e-11
1.88911e-10
-4.31787e-11
2.02024e-10
-3.14824e-11
2.15681e-10
-1.78293e-11
2.30195e-10
-2.27993e-12
2.45781e-10
1.55471e-11
2.62449e-10
3.55043e-11
2.81411e-10
5.79637e-11
3.02549e-10
8.30826e-11
3.28031e-10
1.11987e-10
3.58463e-10
1.45929e-10
3.96629e-10
1.87791e-10
4.44255e-10
2.42452e-10
5.05877e-10
3.12284e-10
5.69302e-10
5.99004e-10
2.53753e-11
-2.28473e-10
6.70487e-11
-3.99454e-10
9.80871e-11
-3.2098e-10
1.16656e-10
-2.16981e-10
1.26427e-10
-1.38934e-10
1.29802e-10
-8.10429e-11
1.28988e-10
-3.88224e-11
1.25029e-10
-8.4537e-12
1.19184e-10
1.27296e-11
1.1204e-10
2.70638e-11
1.04204e-10
3.62434e-11
9.6076e-11
4.16239e-11
8.78871e-11
4.43146e-11
7.9828e-11
4.51283e-11
7.20401e-11
4.46798e-11
6.46226e-11
4.34088e-11
5.7641e-11
4.16757e-11
5.11338e-11
3.98051e-11
4.51317e-11
3.79873e-11
3.96734e-11
3.63174e-11
3.48009e-11
3.48956e-11
3.05461e-11
3.37851e-11
2.69198e-11
3.29712e-11
2.39116e-11
3.24312e-11
2.15049e-11
3.21699e-11
1.96917e-11
3.21584e-11
1.84689e-11
3.22991e-11
1.78218e-11
3.24818e-11
1.77086e-11
3.26373e-11
1.80559e-11
3.27195e-11
1.87645e-11
3.26622e-11
1.97228e-11
3.23826e-11
2.08211e-11
3.18181e-11
2.1959e-11
3.09431e-11
2.30442e-11
2.97512e-11
2.39858e-11
2.82382e-11
2.46911e-11
2.6413e-11
2.50721e-11
2.43177e-11
2.50583e-11
2.20262e-11
2.46089e-11
1.96155e-11
2.37154e-11
1.71368e-11
2.23925e-11
1.46148e-11
2.06652e-11
1.20735e-11
1.85593e-11
9.56146e-12
1.60999e-11
7.15328e-12
1.33158e-11
4.9259e-12
1.02435e-11
2.92917e-12
6.92698e-12
1.17288e-12
3.41315e-12
-3.61777e-13
-2.55967e-13
-1.69533e-12
-4.05019e-12
-2.82587e-12
-7.95351e-12
-3.72236e-12
-1.19602e-11
-4.3388e-12
-1.60651e-11
-4.64041e-12
-2.02561e-11
-4.6227e-12
-2.45122e-11
-4.31047e-12
-2.88096e-11
-3.7332e-12
-3.31297e-11
-2.89274e-12
-3.74628e-11
-1.74793e-12
-4.18003e-11
-2.31886e-13
-4.61241e-11
1.70784e-12
-5.04011e-11
4.07756e-12
-5.45907e-11
6.84396e-12
-5.86595e-11
9.97758e-12
-6.25881e-11
1.34962e-11
-6.6356e-11
1.74618e-11
-6.99169e-11
2.19304e-11
-7.31852e-11
2.68983e-11
-7.60578e-11
3.23057e-11
-7.84591e-11
3.81034e-11
-8.03688e-11
4.43103e-11
-8.17995e-11
5.09881e-11
-8.27407e-11
5.81482e-11
-8.31264e-11
6.57012e-11
-8.2866e-11
7.35273e-11
-8.19014e-11
8.15909e-11
-8.02182e-11
8.99504e-11
-7.7798e-11
9.86414e-11
-7.45865e-11
1.07604e-10
-7.0526e-11
1.16774e-10
-6.55831e-11
1.26194e-10
-5.96999e-11
1.35941e-10
-5.27537e-11
1.46004e-10
-4.46283e-11
1.56356e-10
-3.52525e-11
1.67048e-10
-2.44562e-11
1.78114e-10
-1.2051e-11
1.89619e-10
1.91655e-12
2.01715e-10
1.77786e-11
2.14334e-10
3.55478e-11
2.28012e-10
5.5148e-11
2.42849e-10
7.70259e-11
2.59535e-10
1.01046e-10
2.78528e-10
1.28004e-10
3.01074e-10
1.5832e-10
3.28145e-10
1.93643e-10
3.61305e-10
2.35921e-10
4.01977e-10
2.88589e-10
4.53209e-10
3.53104e-10
5.04787e-10
5.28753e-10
1.99252e-11
-2.48364e-10
5.23474e-11
-4.31877e-10
7.60956e-11
-3.44727e-10
8.98834e-11
-2.30768e-10
9.66304e-11
-1.45682e-10
9.83744e-11
-8.27881e-11
9.67441e-11
-3.71908e-11
9.27919e-11
-4.50191e-12
8.74329e-11
1.80873e-11
8.12135e-11
3.32825e-11
7.44919e-11
4.29652e-11
6.75605e-11
4.85564e-11
6.06404e-11
5.12336e-11
5.39188e-11
5.18488e-11
4.75175e-11
5.10816e-11
4.14831e-11
4.94437e-11
3.58281e-11
4.73304e-11
3.05801e-11
4.50526e-11
2.57919e-11
4.27753e-11
2.15148e-11
4.05954e-11
1.77749e-11
3.86368e-11
1.4573e-11
3.69873e-11
1.18971e-11
3.5647e-11
9.73769e-12
3.45913e-11
8.09776e-12
3.38108e-11
6.9887e-12
3.32681e-11
6.4078e-12
3.288e-11
6.32091e-12
3.25681e-11
6.66578e-12
3.2292e-11
7.36748e-12
3.20181e-11
8.3495e-12
3.16807e-11
9.53608e-12
3.11957e-11
1.085e-11
3.05031e-11
1.22094e-11
2.95829e-11
1.35261e-11
2.84345e-11
1.47081e-11
2.70567e-11
1.56672e-11
2.54542e-11
1.63293e-11
2.36553e-11
1.66438e-11
2.17114e-11
1.65849e-11
1.96744e-11
1.61461e-11
1.75762e-11
1.53302e-11
1.54318e-11
1.41425e-11
1.32621e-11
1.25905e-11
1.11137e-11
1.06875e-11
9.05589e-12
8.45772e-12
7.1556e-12
5.93583e-12
5.45166e-12
3.1633e-12
3.94642e-12
1.81345e-13
2.62093e-12
-2.97607e-12
1.46231e-12
-6.28645e-12
4.8454e-13
-9.73783e-12
-2.70714e-13
-1.33218e-11
-7.54176e-13
-1.70254e-11
-9.36192e-13
-2.08256e-11
-8.22167e-13
-2.46926e-11
-4.43334e-13
-2.85992e-11
1.73364e-13
-3.25278e-11
1.03578e-12
-3.6469e-11
2.19295e-12
-4.041e-11
3.7085e-12
-4.43221e-11
5.61934e-12
-4.81589e-11
7.91405e-12
-5.18688e-11
1.05537e-11
-5.54111e-11
1.35196e-11
-5.87677e-11
1.68519e-11
-6.19233e-11
2.06162e-11
-6.48473e-11
2.48536e-11
-6.74796e-11
2.95304e-11
-6.97422e-11
3.45679e-11
-7.15618e-11
3.9922e-11
-7.28817e-11
4.56294e-11
-7.36524e-11
5.17591e-11
-7.38198e-11
5.83164e-11
-7.3332e-11
6.5214e-11
-7.21582e-11
7.23538e-11
-7.02864e-11
7.972e-11
-6.76911e-11
8.7356e-11
-6.43084e-11
9.52586e-11
-6.00613e-11
1.03357e-10
-5.4907e-11
1.11621e-10
-4.88294e-11
1.20117e-10
-4.17705e-11
1.28882e-10
-3.36014e-11
1.37836e-10
-2.42001e-11
1.46955e-10
-1.35348e-11
1.56381e-10
-1.55606e-12
1.66135e-10
1.19609e-11
1.76101e-10
2.70573e-11
1.86618e-10
4.36993e-11
1.97693e-10
6.21297e-11
2.09582e-10
8.22066e-11
2.22772e-10
1.04465e-10
2.37277e-10
1.28566e-10
2.54426e-10
1.55416e-10
2.74223e-10
1.85426e-10
2.98134e-10
2.19697e-10
3.27033e-10
2.59609e-10
3.62064e-10
3.07329e-10
4.05489e-10
3.63496e-10
4.4862e-10
4.68476e-10
1.37835e-11
-2.62113e-10
3.56419e-11
-4.53736e-10
5.10287e-11
-3.60114e-10
5.94208e-11
-2.39162e-10
6.27758e-11
-1.49036e-10
6.2906e-11
-8.29188e-11
6.06646e-11
-3.49492e-11
5.70989e-11
-9.36776e-13
5.25485e-11
2.2638e-11
4.75016e-11
3.83285e-11
4.22331e-11
4.82336e-11
3.69316e-11
5.38567e-11
3.17601e-11
5.64056e-11
2.68024e-11
5.68066e-11
2.20903e-11
5.57933e-11
1.76574e-11
5.38757e-11
1.35528e-11
5.14343e-11
9.82626e-12
4.87796e-11
6.50951e-12
4.60924e-11
3.60994e-12
4.34952e-11
1.12099e-12
4.1126e-11
-9.58945e-13
3.90676e-11
-2.61966e-12
3.73083e-11
-3.84525e-12
3.58173e-11
-4.62269e-12
3.45877e-11
-4.95286e-12
3.35973e-11
-4.86059e-12
3.27873e-11
-4.39209e-12
3.20999e-11
-3.60026e-12
3.15007e-11
-2.53366e-12
3.09517e-11
-1.23905e-12
3.03857e-11
2.29033e-13
2.97268e-11
1.80275e-12
2.8929e-11
3.40287e-12
2.79832e-11
4.94589e-12
2.6892e-11
6.35263e-12
2.56499e-11
7.55549e-12
2.42507e-11
8.50258e-12
2.27077e-11
9.15825e-12
2.10557e-11
9.5002e-12
1.93329e-11
9.51463e-12
1.75625e-11
9.19207e-12
1.57549e-11
8.52636e-12
1.3928e-11
7.5174e-12
1.21226e-11
6.17502e-12
1.03982e-11
4.5205e-12
8.81054e-12
2.58409e-12
7.38881e-12
3.99579e-13
6.13149e-12
-2.00193e-12
5.02254e-12
-4.5964e-12
4.05677e-12
-7.36772e-12
3.25641e-12
-1.03039e-11
2.66674e-12
-1.33904e-11
2.33369e-12
-1.6604e-11
2.27822e-12
-1.99128e-11
2.48664e-12
-2.32825e-11
2.92608e-12
-2.66857e-11
3.57663e-12
-3.01067e-11
4.45715e-12
-3.35362e-11
5.62279e-12
-3.69604e-11
7.13249e-12
-4.03516e-11
9.00997e-12
-4.36698e-11
1.12318e-11
-4.68723e-11
1.37563e-11
-4.99255e-11
1.65732e-11
-5.27942e-11
1.97211e-11
-5.5436e-11
2.32579e-11
-5.77885e-11
2.72059e-11
-5.97843e-11
3.15261e-11
-6.13762e-11
3.61599e-11
-6.25469e-11
4.10926e-11
-6.32811e-11
4.63634e-11
-6.35226e-11
5.20013e-11
-6.31682e-11
5.79637e-11
-6.21176e-11
6.41649e-11
-6.03306e-11
7.05675e-11
-5.78194e-11
7.72094e-11
-5.45816e-11
8.41191e-11
-5.05616e-11
9.12386e-11
-4.56897e-11
9.84841e-11
-3.99274e-11
1.05859e-10
-3.32399e-11
1.13431e-10
-2.55567e-11
1.21198e-10
-1.68091e-11
1.29088e-10
-6.93723e-12
1.37083e-10
4.18375e-12
1.45259e-10
1.66296e-11
1.53689e-10
3.03574e-11
1.62374e-10
4.55324e-11
1.71444e-10
6.21359e-11
1.81089e-10
8.03269e-11
1.91389e-10
1.00048e-10
2.03051e-10
1.21447e-10
2.15879e-10
1.44878e-10
2.30994e-10
1.70548e-10
2.48553e-10
1.98968e-10
2.69715e-10
2.30855e-10
2.95147e-10
2.67069e-10
3.2585e-10
3.08755e-10
3.63805e-10
3.55954e-10
4.01423e-10
4.18465e-10
6.93057e-12
-2.6901e-10
1.70381e-11
-4.63845e-10
2.33705e-11
-3.66446e-10
2.59221e-11
-2.41715e-10
2.59657e-11
-1.4908e-10
2.44397e-11
-8.13932e-11
2.18943e-11
-3.2403e-11
1.87918e-11
2.16589e-12
1.53797e-11
2.60491e-11
1.18627e-11
4.18443e-11
8.40694e-12
5.16898e-11
5.06575e-12
5.71979e-11
1.87143e-12
5.96005e-11
-1.14618e-12
5.98232e-11
-3.95934e-12
5.86056e-11
-6.53478e-12
5.64518e-11
-8.84044e-12
5.37406e-11
-1.08576e-11
5.07961e-11
-1.25873e-11
4.78208e-11
-1.40406e-11
4.49483e-11
-1.52162e-11
4.23027e-11
-1.6091e-11
3.99431e-11
-1.66352e-11
3.78524e-11
-1.68334e-11
3.60146e-11
-1.66889e-11
3.44419e-11
-1.62185e-11
3.3126e-11
-1.54492e-11
3.20179e-11
-1.44124e-11
3.10632e-11
-1.31368e-11
3.02249e-11
-1.16486e-11
2.94632e-11
-9.9817e-12
2.87188e-11
-8.18665e-12
2.79322e-11
-6.32904e-12
2.7072e-11
-4.4793e-12
2.61339e-11
-2.70278e-12
2.51156e-11
-1.05544e-12
2.40022e-11
4.15782e-13
2.27791e-11
1.6716e-12
2.14516e-11
2.68013e-12
2.00472e-11
3.41675e-12
1.85964e-11
3.86288e-12
1.71165e-11
4.00429e-12
1.56136e-11
3.83147e-12
1.41009e-11
3.34236e-12
1.26119e-11
2.54519e-12
1.11958e-11
1.45831e-12
9.89803e-12
1.06253e-13
8.74146e-12
-1.48583e-12
7.7239e-12
-3.29663e-12
6.83345e-12
-5.30999e-12
6.07044e-12
-7.51307e-12
5.46027e-12
-9.89172e-12
5.04649e-12
-1.24257e-11
4.86858e-12
-1.5087e-11
4.93978e-12
-1.78427e-11
5.24229e-12
-2.06629e-11
5.74608e-12
-2.35259e-11
6.4396e-12
-2.64179e-11
7.34916e-12
-2.93245e-11
8.52928e-12
-3.22206e-11
1.00285e-11
-3.50681e-11
1.18574e-11
-3.78246e-11
1.39884e-11
-4.04549e-11
1.63868e-11
-4.29462e-11
1.90649e-11
-4.52809e-11
2.20564e-11
-4.74245e-11
2.54022e-11
-4.9307e-11
2.90889e-11
-5.08388e-11
3.30579e-11
-5.19459e-11
3.7267e-11
-5.25956e-11
4.17429e-11
-5.27837e-11
4.65525e-11
-5.24939e-11
5.17123e-11
-5.16724e-11
5.71427e-11
-5.02455e-11
6.27388e-11
-4.81576e-11
6.84802e-11
-4.53767e-11
7.44286e-11
-4.18651e-11
8.06079e-11
-3.75675e-11
8.69416e-11
-3.24412e-11
9.33582e-11
-2.64718e-11
9.98898e-11
-1.96194e-11
1.06578e-10
-1.17758e-11
1.13354e-10
-2.84655e-12
1.20158e-10
7.14645e-12
1.27089e-10
1.82033e-11
1.34202e-10
3.04657e-11
1.41427e-10
4.39567e-11
1.48882e-10
5.87287e-11
1.56673e-10
7.47275e-11
1.6509e-10
9.19623e-11
1.74156e-10
1.10816e-10
1.84199e-10
1.31045e-10
1.9565e-10
1.53062e-10
2.08977e-10
1.77e-10
2.24616e-10
2.03238e-10
2.43477e-10