/*--------------------------------*- C++ -*----------------------------------*\
| =========                 |                                                 |
| \\      /  F ield         | OpenFOAM: The Open Source CFD Toolbox           |
|  \\    /   O peration     | Version:  2406                                  |
|   \\  /    A nd           | Website:  www.openfoam.com                      |
|    \\/     M anipulation  |                                                 |
\*---------------------------------------------------------------------------*/
FoamFile
{
    version     2.0;
    format      ascii;
    arch        "LSB;label=32;scalar=64";
    class       volVectorField;
    location    "0.0004";
    object      U;
}
// * * * * * * * * * * * * * * * * * * * * * * * * * * * * * * * * * * * * * //

dimensions      [0 1 -1 0 0 0 0];

internalField   nonuniform List<vector> 
5000
(
(0.00122813 -0.000104421 0)
(0.00478031 -0.00452961 0)
(0.0146562 -0.00534224 0)
(0.0240049 -0.00474117 0)
(0.0315526 -0.00403381 0)
(0.0385262 -0.00347986 0)
(0.0444276 -0.00308322 0)
(0.0499734 -0.00273615 0)
(0.0549581 -0.00243626 0)
(0.0594972 -0.00210066 0)
(0.0641179 -0.00190193 0)
(0.0679489 -0.00163898 0)
(0.0717325 -0.00147432 0)
(0.075673 -0.00139046 0)
(0.079049 -0.00126475 0)
(0.0823499 -0.00125411 0)
(0.0859495 -0.00134231 0)
(0.0892995 -0.00126698 0)
(0.0922692 -0.00105604 0)
(0.0950897 -0.000886528 0)
(0.0976172 -0.000669049 0)
(0.099595 -0.000283823 0)
(0.100947 0.00015332 0)
(0.10158 0.000576928 0)
(0.101324 0.0011762 0)
(0.100056 0.0020875 0)
(0.097638 0.00314501 0)
(0.0938396 0.0041188 0)
(0.0884958 0.00501759 0)
(0.0816937 0.00597482 0)
(0.0737117 0.00692632 0)
(0.0648466 0.00757533 0)
(0.0553975 0.0076857 0)
(0.0457815 0.00730346 0)
(0.0365436 0.00664837 0)
(0.0281948 0.00585159 0)
(0.02105 0.00486249 0)
(0.0152312 0.00359785 0)
(0.0107974 0.00211671 0)
(0.00783949 0.000615528 0)
(0.00646034 -0.000733668 0)
(0.00669221 -0.00191388 0)
(0.00845027 -0.00303153 0)
(0.0115578 -0.00417031 0)
(0.0158031 -0.00528259 0)
(0.0209743 -0.00621536 0)
(0.0268649 -0.00683709 0)
(0.0332758 -0.00714682 0)
(0.0400373 -0.0072766 0)
(0.0470384 -0.00739493 0)
(0.0542329 -0.00759496 0)
(0.0616113 -0.00785024 0)
(0.0691544 -0.00805768 0)
(0.0768069 -0.00812243 0)
(0.0844871 -0.00802032 0)
(0.0921218 -0.00780254 0)
(0.0996738 -0.00755143 0)
(0.107139 -0.00732386 0)
(0.114518 -0.00711769 0)
(0.121777 -0.00687641 0)
(0.12884 -0.0065234 0)
(0.135599 -0.00600323 0)
(0.141937 -0.00530692 0)
(0.14774 -0.0044689 0)
(0.152898 -0.00353734 0)
(0.157284 -0.00253326 0)
(0.160748 -0.00142186 0)
(0.163121 -0.00011815 0)
(0.164224 0.00146627 0)
(0.163865 0.00335714 0)
(0.161832 0.00548038 0)
(0.157904 0.00768239 0)
(0.15187 0.00980963 0)
(0.143565 0.0117931 0)
(0.132881 0.0136707 0)
(0.119747 0.0155308 0)
(0.104099 0.017437 0)
(0.0859023 0.0194126 0)
(0.065211 0.0214984 0)
(0.0421916 0.0237991 0)
(0.0170321 0.0264312 0)
(-0.0102227 0.0294151 0)
(-0.0397645 0.0326556 0)
(-0.0719592 0.0360728 0)
(-0.107239 0.0397323 0)
(-0.146117 0.0437863 0)
(-0.189292 0.04831 0)
(-0.237639 0.0533113 0)
(-0.292035 0.0589186 0)
(-0.353295 0.0653777 0)
(-0.42234 0.0727984 0)
(-0.500215 0.081156 0)
(-0.587888 0.0905985 0)
(-0.686727 0.101298 0)
(-0.797759 0.113059 0)
(-0.923312 0.125938 0)
(-1.08318 0.140996 0)
(-1.18159 0.156711 0)
(-1.53794 0.174031 0)
(-1.57318 0.197147 0)
(0.00728572 -0.00792611 0)
(0.0238138 -0.0254593 0)
(0.0473338 -0.0269438 0)
(0.0672245 -0.0229101 0)
(0.0819878 -0.0195438 0)
(0.0934497 -0.0165867 0)
(0.101437 -0.0146148 0)
(0.107603 -0.0128324 0)
(0.112593 -0.0118841 0)
(0.115838 -0.0107645 0)
(0.118598 -0.00999337 0)
(0.121425 -0.0094384 0)
(0.123394 -0.00898985 0)
(0.124977 -0.0086223 0)
(0.127005 -0.00834046 0)
(0.128997 -0.00819818 0)
(0.130241 -0.0080838 0)
(0.131343 -0.00773924 0)
(0.132825 -0.00712629 0)
(0.133908 -0.00635243 0)
(0.13408 -0.00536225 0)
(0.133946 -0.00407298 0)
(0.133772 -0.0025515 0)
(0.132839 -0.00080867 0)
(0.130608 0.00131979 0)
(0.127343 0.00391944 0)
(0.123314 0.00683035 0)
(0.118259 0.00984514 0)
(0.111909 0.0128874 0)
(0.104521 0.0158574 0)
(0.0965809 0.0184211 0)
(0.088265 0.0201216 0)
(0.0795036 0.0207068 0)
(0.0704466 0.020265 0)
(0.0616177 0.0190298 0)
(0.053563 0.0171297 0)
(0.0464887 0.0145727 0)
(0.0403291 0.0114324 0)
(0.0351066 0.00796507 0)
(0.0311212 0.00450167 0)
(0.0287516 0.00123836 0)
(0.02811 -0.00184312 0)
(0.0289248 -0.00484415 0)
(0.0307548 -0.00774766 0)
(0.0333105 -0.010348 0)
(0.0365943 -0.0123737 0)
(0.0407732 -0.013694 0)
(0.0459307 -0.0144272 0)
(0.0519158 -0.014869 0)
(0.0583916 -0.0153049 0)
(0.0650206 -0.0158488 0)
(0.0716308 -0.0164171 0)
(0.0782514 -0.016833 0)
(0.0850191 -0.0169714 0)
(0.0920377 -0.0168432 0)
(0.0992844 -0.0165752 0)
(0.106604 -0.0163166 0)
(0.113773 -0.0161394 0)
(0.1206 -0.0159942 0)
(0.126993 -0.0157393 0)
(0.132976 -0.0152194 0)
(0.138621 -0.0143444 0)
(0.143943 -0.0131251 0)
(0.148801 -0.0116457 0)
(0.1529 -0.00998947 0)
(0.155897 -0.00815997 0)
(0.157546 -0.00604827 0)
(0.157782 -0.00347547 0)
(0.15664 -0.000293395 0)
(0.15407 0.00352059 0)
(0.149797 0.00784895 0)
(0.143373 0.0125163 0)
(0.134426 0.0174099 0)
(0.1229 0.0225312 0)
(0.109039 0.0279165 0)
(0.0931103 0.0334975 0)
(0.0751041 0.0390505 0)
(0.0547053 0.0443301 0)
(0.0315606 0.0492869 0)
(0.00553433 0.0541491 0)
(-0.0233384 0.0592651 0)
(-0.0551202 0.064875 0)
(-0.0900989 0.0710835 0)
(-0.128631 0.0780535 0)
(-0.170983 0.0861185 0)
(-0.217443 0.0956106 0)
(-0.268505 0.10666 0)
(-0.324772 0.119318 0)
(-0.386755 0.133786 0)
(-0.454969 0.150295 0)
(-0.530108 0.168899 0)
(-0.61281 0.189747 0)
(-0.703657 0.213169 0)
(-0.804281 0.239488 0)
(-0.915288 0.26936 0)
(-1.03862 0.304058 0)
(-1.20657 0.348243 0)
(-1.28917 0.410065 0)
(-1.62683 0.476628 0)
(-1.83135 0.526353 0)
(0.0118051 -0.0307917 0)
(0.0364774 -0.0675392 0)
(0.0694665 -0.0635117 0)
(0.0949843 -0.0506208 0)
(0.111928 -0.0393055 0)
(0.124097 -0.0303539 0)
(0.13164 -0.0235849 0)
(0.135875 -0.0184052 0)
(0.137853 -0.0146896 0)
(0.138514 -0.0121776 0)
(0.137675 -0.0101336 0)
(0.136292 -0.00878272 0)
(0.134922 -0.00802322 0)
(0.133216 -0.00739395 0)
(0.131057 -0.00691454 0)
(0.129064 -0.00668539 0)
(0.12715 -0.00643577 0)
(0.125052 -0.00591605 0)
(0.122962 -0.00514626 0)
(0.1208 -0.00412942 0)
(0.118371 -0.0027257 0)
(0.115884 -0.000873196 0)
(0.113438 0.00135057 0)
(0.110649 0.00391473 0)
(0.107236 0.00688682 0)
(0.103399 0.0102841 0)
(0.0993941 0.0139987 0)
(0.0951718 0.0178703 0)
(0.0906306 0.0217175 0)
(0.0859228 0.0252658 0)
(0.0812931 0.0281357 0)
(0.0767711 0.0299799 0)
(0.0722025 0.0306345 0)
(0.0675334 0.0301204 0)
(0.0629198 0.0285248 0)
(0.0585469 0.0259254 0)
(0.0544485 0.0224332 0)
(0.0505698 0.0182656 0)
(0.0469681 0.0137264 0)
(0.0438766 0.00908846 0)
(0.0415397 0.00449457 0)
(0.039997 -2.18489e-05 0)
(0.0390464 -0.00442062 0)
(0.0384229 -0.00855976 0)
(0.0380273 -0.0122142 0)
(0.0380005 -0.0151933 0)
(0.0385921 -0.0174582 0)
(0.0399478 -0.0191448 0)
(0.0419826 -0.0204771 0)
(0.044425 -0.0216385 0)
(0.0469826 -0.0226885 0)
(0.0495007 -0.0235697 0)
(0.0520122 -0.0241855 0)
(0.0546635 -0.0244836 0)
(0.0575803 -0.0244947 0)
(0.0607568 -0.0243086 0)
(0.0640311 -0.0240151 0)
(0.0671537 -0.0236479 0)
(0.0699102 -0.0231611 0)
(0.0722253 -0.0224465 0)
(0.0741797 -0.0213799 0)
(0.0759165 -0.0198724 0)
(0.0774882 -0.0179022 0)
(0.0787512 -0.0155067 0)
(0.0793982 -0.012734 0)
(0.079128 -0.00957762 0)
(0.0778302 -0.00594243 0)
(0.0756295 -0.00167623 0)
(0.0727259 0.00333992 0)
(0.069147 0.00910585 0)
(0.0646282 0.0154988 0)
(0.0587525 0.0223756 0)
(0.0512458 0.029701 0)
(0.0421522 0.0375747 0)
(0.0317071 0.0461006 0)
(0.0200262 0.0551982 0)
(0.00693873 0.064549 0)
(-0.00785281 0.0737703 0)
(-0.024485 0.0826822 0)
(-0.0428847 0.0914172 0)
(-0.063023 0.100281 0)
(-0.0851173 0.109559 0)
(-0.109482 0.11951 0)
(-0.136251 0.130495 0)
(-0.165419 0.142983 0)
(-0.197103 0.157354 0)
(-0.231534 0.173788 0)
(-0.268768 0.19241 0)
(-0.308711 0.213367 0)
(-0.351368 0.236678 0)
(-0.396703 0.26232 0)
(-0.444742 0.290567 0)
(-0.495812 0.321609 0)
(-0.550556 0.356236 0)
(-0.609443 0.396609 0)
(-0.673872 0.445612 0)
(-0.770974 0.511998 0)
(-0.789261 0.616623 0)
(-0.971032 0.737487 0)
(-1.10869 0.797773 0)
(0.0140667 -0.061737 0)
(0.0443399 -0.121296 0)
(0.081711 -0.107903 0)
(0.109965 -0.0820276 0)
(0.127967 -0.0604935 0)
(0.139474 -0.0438941 0)
(0.145805 -0.0308285 0)
(0.148651 -0.0216753 0)
(0.148674 -0.0145959 0)
(0.146686 -0.00993932 0)
(0.143713 -0.00670356 0)
(0.139948 -0.00450108 0)
(0.135623 -0.00315712 0)
(0.131099 -0.00243741 0)
(0.126661 -0.00201356 0)
(0.122262 -0.00165583 0)
(0.117582 -0.0013343 0)
(0.113015 -0.000947537 0)
(0.10899 -0.00029545 0)
(0.105013 0.00073082 0)
(0.100741 0.00216369 0)
(0.0966896 0.00404667 0)
(0.0931291 0.00639386 0)
(0.0895465 0.00915845 0)
(0.085593 0.0122927 0)
(0.0816367 0.015772 0)
(0.0781022 0.0195289 0)
(0.0748992 0.0233927 0)
(0.0717672 0.027108 0)
(0.0687784 0.0303935 0)
(0.0662125 0.0329853 0)
(0.0641116 0.0346601 0)
(0.0621974 0.035257 0)
(0.0601945 0.0346997 0)
(0.0580763 0.033006 0)
(0.0559618 0.030282 0)
(0.0538808 0.0267017 0)
(0.0517309 0.0224746 0)
(0.0494434 0.017809 0)
(0.047115 0.012887 0)
(0.0449346 0.00786193 0)
(0.0429947 0.00287667 0)
(0.0412013 -0.00191865 0)
(0.039376 -0.00636831 0)
(0.0374466 -0.0103365 0)
(0.0355467 -0.0137436 0)
(0.0339377 -0.0165834 0)
(0.0328271 -0.0189136 0)
(0.032225 -0.0208216 0)
(0.0319461 -0.0223871 0)
(0.0317417 -0.0236592 0)
(0.0314601 -0.0246536 0)
(0.0311227 -0.0253668 0)
(0.0308762 -0.0257937 0)
(0.0308619 -0.02594 0)
(0.0310939 -0.0258249 0)
(0.0314215 -0.0254733 0)
(0.0316003 -0.0248995 0)
(0.0314309 -0.0240881 0)
(0.0308734 -0.0229829 0)
(0.0300541 -0.0214966 0)
(0.0291469 -0.0195421 0)
(0.0282059 -0.0170706 0)
(0.0270782 -0.0140838 0)
(0.0254807 -0.0106016 0)
(0.0231954 -0.00660268 0)
(0.0202272 -0.00198869 0)
(0.0167756 0.00338247 0)
(0.0130268 0.00960186 0)
(0.00894654 0.0166249 0)
(0.00428229 0.0242797 0)
(-0.00120213 0.0323796 0)
(-0.00747953 0.0408512 0)
(-0.0142733 0.0497546 0)
(-0.0213601 0.0591691 0)
(-0.0288631 0.0690592 0)
(-0.0372018 0.0792711 0)
(-0.0467296 0.0896714 0)
(-0.0574679 0.100272 0)
(-0.0692507 0.1112 0)
(-0.0820719 0.122575 0)
(-0.0961432 0.134494 0)
(-0.111583 0.147149 0)
(-0.128229 0.160872 0)
(-0.14589 0.175989 0)
(-0.16459 0.192707 0)
(-0.184348 0.211199 0)
(-0.204919 0.231682 0)
(-0.226071 0.254282 0)
(-0.247707 0.279027 0)
(-0.269477 0.30603 0)
(-0.291424 0.335516 0)
(-0.313689 0.368017 0)
(-0.336346 0.404867 0)
(-0.360265 0.44868 0)
(-0.385195 0.504031 0)
(-0.432699 0.580438 0)
(-0.405427 0.698559 0)
(-0.491496 0.837695 0)
(-0.529514 0.904918 0)
(0.015573 -0.0968979 0)
(0.0477623 -0.181354 0)
(0.0876722 -0.155967 0)
(0.116752 -0.11444 0)
(0.133622 -0.0814634 0)
(0.144544 -0.0559997 0)
(0.149614 -0.0365184 0)
(0.150833 -0.0223837 0)
(0.14959 -0.0121761 0)
(0.146031 -0.00508296 0)
(0.141426 -0.000326246 0)
(0.135912 0.0026985 0)
(0.130115 0.00446787 0)
(0.124121 0.00540704 0)
(0.117968 0.0058061 0)
(0.111977 0.00594742 0)
(0.106001 0.00609011 0)
(0.100147 0.00637304 0)
(0.0947479 0.00683116 0)
(0.089621 0.00754705 0)
(0.0846082 0.00868748 0)
(0.0800071 0.0103338 0)
(0.0758929 0.0124088 0)
(0.071908 0.014829 0)
(0.0679424 0.0176058 0)
(0.0643423 0.0207354 0)
(0.0613429 0.0240785 0)
(0.058789 0.0274075 0)
(0.0565183 0.0305195 0)
(0.0546627 0.0332476 0)
(0.0534083 0.0353965 0)
(0.0526493 0.0367373 0)
(0.0520502 0.0370919 0)
(0.0513787 0.0364095 0)
(0.0506412 0.0347537 0)
(0.0498967 0.0322286 0)
(0.0490507 0.0289308 0)
(0.0479012 0.0249641 0)
(0.0463557 0.0204784 0)
(0.0445392 0.0156755 0)
(0.0426656 0.0107701 0)
(0.0408157 0.0059399 0)
(0.0388588 0.00130606 0)
(0.0365901 -0.0030512 0)
(0.0339479 -0.00706275 0)
(0.0311118 -0.0106575 0)
(0.0284002 -0.0137746 0)
(0.0260579 -0.0163886 0)
(0.0241018 -0.0185251 0)
(0.0223366 -0.0202511 0)
(0.0205119 -0.0216455 0)
(0.0184994 -0.0227653 0)
(0.016367 -0.0236264 0)
(0.0143105 -0.0242083 0)
(0.0124996 -0.0244773 0)
(0.0109445 -0.0244145 0)
(0.0094709 -0.0240288 0)
(0.00782142 -0.023345 0)
(0.0058198 -0.0223707 0)
(0.00348253 -0.0210674 0)
(0.000991473 -0.0193506 0)
(-0.00146284 -0.0171278 0)
(-0.00385166 -0.0143457 0)
(-0.0063504 -0.0110091 0)
(-0.00920336 -0.00714486 0)
(-0.0125136 -0.0027397 0)
(-0.0161444 0.00229355 0)
(-0.0198397 0.00807884 0)
(-0.0234758 0.0146906 0)
(-0.0272094 0.0220955 0)
(-0.0313546 0.0301834 0)
(-0.036079 0.0388648 0)
(-0.0412144 0.0481315 0)
(-0.0463979 0.0580013 0)
(-0.0514241 0.0683988 0)
(-0.0564388 0.0791215 0)
(-0.0617638 0.0899692 0)
(-0.0675674 0.100918 0)
(-0.0737872 0.112135 0)
(-0.080372 0.123806 0)
(-0.0874592 0.136013 0)
(-0.095203 0.148826 0)
(-0.103523 0.162472 0)
(-0.112191 0.177258 0)
(-0.121091 0.193351 0)
(-0.130168 0.210787 0)
(-0.139194 0.229692 0)
(-0.147836 0.25022 0)
(-0.155882 0.272354 0)
(-0.163132 0.296229 0)
(-0.169341 0.322086 0)
(-0.174491 0.350113 0)
(-0.178643 0.381517 0)
(-0.181995 0.417773 0)
(-0.184868 0.461525 0)
(-0.186344 0.518374 0)
(-0.202609 0.595559 0)
(-0.150912 0.710602 0)
(-0.178817 0.841583 0)
(-0.160376 0.904814 0)
(0.0157206 -0.133602 0)
(0.0486536 -0.243443 0)
(0.0880098 -0.204311 0)
(0.116234 -0.14623 0)
(0.132286 -0.100912 0)
(0.14174 -0.0662292 0)
(0.145528 -0.0405166 0)
(0.145518 -0.0212962 0)
(0.143046 -0.00787015 0)
(0.138462 0.00154901 0)
(0.132924 0.00777292 0)
(0.126588 0.0116903 0)
(0.119754 0.013967 0)
(0.112791 0.0150184 0)
(0.106001 0.0152896 0)
(0.0994738 0.0151865 0)
(0.0928465 0.0149559 0)
(0.0863375 0.0147788 0)
(0.0804334 0.0148071 0)
(0.0749517 0.0151461 0)
(0.0696663 0.0158716 0)
(0.0648538 0.0170081 0)
(0.0606519 0.0185215 0)
(0.0567742 0.0203828 0)
(0.0530905 0.0225881 0)
(0.0498628 0.0250863 0)
(0.0472983 0.0277368 0)
(0.0452927 0.0303623 0)
(0.043704 0.0328036 0)
(0.0425864 0.034904 0)
(0.0420309 0.0364829 0)
(0.0419319 0.0373684 0)
(0.0420381 0.0374601 0)
(0.042166 0.036743 0)
(0.042262 0.0352397 0)
(0.0422712 0.0329683 0)
(0.0420419 0.0299607 0)
(0.0414134 0.026313 0)
(0.0403714 0.0222041 0)
(0.0390656 0.0178499 0)
(0.0376482 0.0134316 0)
(0.0361008 0.00905726 0)
(0.034232 0.00478116 0)
(0.0318544 0.00065685 0)
(0.0289775 -0.00322754 0)
(0.0258463 -0.00675895 0)
(0.0227921 -0.00984309 0)
(0.0200192 -0.0124462 0)
(0.017488 -0.0146049 0)
(0.0149743 -0.0163981 0)
(0.0122498 -0.0179011 0)
(0.00924989 -0.0191475 0)
(0.00611486 -0.0201191 0)
(0.00308576 -0.0207653 0)
(0.00033044 -0.02104 0)
(-0.00218028 -0.0209328 0)
(-0.00466144 -0.0204732 0)
(-0.00737146 -0.0197025 0)
(-0.0104342 -0.0186298 0)
(-0.0137548 -0.0172048 0)
(-0.0171002 -0.0153312 0)
(-0.0202909 -0.0129161 0)
(-0.0233556 -0.00991765 0)
(-0.0265117 -0.00635018 0)
(-0.0299753 -0.00223772 0)
(-0.0337564 0.00244342 0)
(-0.0376291 0.00777418 0)
(-0.0413231 0.0138337 0)
(-0.044768 0.0206203 0)
(-0.0481496 0.0280356 0)
(-0.0517013 0.035967 0)
(-0.0554323 0.0443987 0)
(-0.0590915 0.0534305 0)
(-0.0624329 0.0631614 0)
(-0.0654921 0.0735457 0)
(-0.0685408 0.0843858 0)
(-0.0717545 0.0954896 0)
(-0.0750159 0.106823 0)
(-0.0781226 0.118487 0)
(-0.0811077 0.130563 0)
(-0.0841811 0.143075 0)
(-0.0873587 0.156103 0)
(-0.0903808 0.16986 0)
(-0.0930718 0.184558 0)
(-0.0954782 0.200276 0)
(-0.0975029 0.217066 0)
(-0.0988224 0.235073 0)
(-0.0992645 0.254388 0)
(-0.0986059 0.274959 0)
(-0.0965631 0.297032 0)
(-0.0932068 0.320859 0)
(-0.0881742 0.346793 0)
(-0.0814356 0.3763 0)
(-0.0736818 0.410412 0)
(-0.0639699 0.452677 0)
(-0.0514227 0.50672 0)
(-0.0487848 0.579096 0)
(0.0146166 0.681875 0)
(0.0202239 0.795292 0)
(0.0670118 0.849783 0)
(0.015317 -0.169839 0)
(0.0464004 -0.303818 0)
(0.0839618 -0.250869 0)
(0.110204 -0.175624 0)
(0.12445 -0.118104 0)
(0.132226 -0.0746435 0)
(0.134977 -0.0424349 0)
(0.134098 -0.0188747 0)
(0.130692 -0.00217284 0)
(0.125693 0.00925663 0)
(0.11964 0.0168188 0)
(0.112934 0.0214265 0)
(0.105927 0.0239941 0)
(0.0987203 0.0251942 0)
(0.0916123 0.0254323 0)
(0.0848696 0.0250271 0)
(0.0782157 0.0243077 0)
(0.0717892 0.0235938 0)
(0.0659604 0.0230758 0)
(0.0605656 0.0228341 0)
(0.0554467 0.0229407 0)
(0.0508477 0.0234349 0)
(0.046861 0.0242835 0)
(0.0432581 0.0254515 0)
(0.0399781 0.026943 0)
(0.037246 0.0287223 0)
(0.0351773 0.0306505 0)
(0.0336288 0.0325409 0)
(0.0324764 0.0342449 0)
(0.0317943 0.0356593 0)
(0.0316777 0.0366839 0)
(0.0320283 0.037206 0)
(0.0325979 0.0371279 0)
(0.033178 0.0363888 0)
(0.0336713 0.0349623 0)
(0.034011 0.0328544 0)
(0.0340959 0.030121 0)
(0.0338416 0.0268814 0)
(0.0332635 0.0232976 0)
(0.032456 0.019522 0)
(0.0314687 0.0156543 0)
(0.0302113 0.0117443 0)
(0.0285017 0.0078353 0)
(0.0262246 0.00400733 0)
(0.02346 0.000381722 0)
(0.0204653 -0.0029164 0)
(0.0175191 -0.00580763 0)
(0.0147462 -0.00828438 0)
(0.0120541 -0.0103974 0)
(0.00922346 -0.0122138 0)
(0.00608486 -0.0137733 0)
(0.00265205 -0.0150656 0)
(-0.000878336 -0.0160399 0)
(-0.00425929 -0.0166378 0)
(-0.00736533 -0.0168298 0)
(-0.0102845 -0.0166336 0)
(-0.0132617 -0.0160994 0)
(-0.0165266 -0.0152686 0)
(-0.0201253 -0.0141319 0)
(-0.0238839 -0.0126178 0)
(-0.0275409 -0.0106259 0)
(-0.0309542 -0.00808371 0)
(-0.0342126 -0.00498272 0)
(-0.0375496 -0.00135967 0)
(-0.0411196 0.00276551 0)
(-0.0448372 0.00744105 0)
(-0.0484385 0.0127696 0)
(-0.0517262 0.0188305 0)
(-0.0547619 0.0256062 0)
(-0.0577912 0.0329886 0)
(-0.0609474 0.0408695 0)
(-0.0640396 0.0492276 0)
(-0.0666869 0.058113 0)
(-0.0686912 0.0675453 0)
(-0.0702372 0.0774466 0)
(-0.0716637 0.0877042 0)
(-0.0730642 0.0982898 0)
(-0.0742159 0.109273 0)
(-0.0749238 0.120704 0)
(-0.0752819 0.13255 0)
(-0.0754555 0.144791 0)
(-0.0753326 0.157545 0)
(-0.0746298 0.170965 0)
(-0.073269 0.185087 0)
(-0.0713132 0.199898 0)
(-0.0685707 0.215498 0)
(-0.0647427 0.231997 0)
(-0.0598375 0.249448 0)
(-0.0536068 0.267988 0)
(-0.0457896 0.287727 0)
(-0.0366361 0.309221 0)
(-0.0254403 0.332843 0)
(-0.0128578 0.359907 0)
(0.00162403 0.391542 0)
(0.0182738 0.430633 0)
(0.0382028 0.479945 0)
(0.0521834 0.54422 0)
(0.118749 0.631675 0)
(0.141237 0.725257 0)
(0.199139 0.769861 0)
(0.0138049 -0.203587 0)
(0.0423059 -0.360164 0)
(0.0757021 -0.293421 0)
(0.0991442 -0.202181 0)
(0.111183 -0.13288 0)
(0.117497 -0.0811998 0)
(0.119027 -0.042771 0)
(0.117436 -0.0153788 0)
(0.113641 0.00432023 0)
(0.108297 0.0175769 0)
(0.10232 0.0262033 0)
(0.0957539 0.0314157 0)
(0.0890453 0.0341579 0)
(0.0822389 0.0352211 0)
(0.0754604 0.0351788 0)
(0.0689614 0.0344228 0)
(0.0626027 0.0332845 0)
(0.0565926 0.0320814 0)
(0.0512349 0.030999 0)
(0.0463128 0.0301163 0)
(0.0416579 0.0295221 0)
(0.0374972 0.0292895 0)
(0.0339497 0.0294212 0)
(0.0308583 0.0298977 0)
(0.0281576 0.0307019 0)
(0.0259606 0.0317582 0)
(0.0243011 0.0329146 0)
(0.0230844 0.0340249 0)
(0.0222899 0.0350163 0)
(0.0220201 0.0358498 0)
(0.0223078 0.0364424 0)
(0.0229848 0.0366578 0)
(0.0237904 0.0363681 0)
(0.0245508 0.0355091 0)
(0.0252143 0.0340822 0)
(0.0257551 0.0321291 0)
(0.0261061 0.0297152 0)
(0.0261968 0.0269262 0)
(0.0260156 0.0238579 0)
(0.0255964 0.0205942 0)
(0.0249336 0.0171944 0)
(0.0239307 0.0137053 0)
(0.0224532 0.0101904 0)
(0.0204485 0.0067467 0)
(0.018023 0.00349112 0)
(0.0154004 0.000524074 0)
(0.0127856 -0.00210437 0)
(0.0102357 -0.00440145 0)
(0.00763549 -0.006408 0)
(0.00479893 -0.00815992 0)
(0.00162212 -0.00965836 0)
(-0.00182181 -0.0108648 0)
(-0.00531625 -0.0117219 0)
(-0.00864321 -0.0121865 0)
(-0.0117359 -0.0122565 0)
(-0.0147308 -0.0119716 0)
(-0.0178731 -0.0113851 0)
(-0.0213341 -0.0105199 0)
(-0.0250735 -0.00933749 0)
(-0.0288597 -0.00774645 0)
(-0.0324447 -0.00565027 0)
(-0.0357604 -0.00300294 0)
(-0.0389675 0.000171968 0)
(-0.0422984 0.00381946 0)
(-0.0458216 0.00791876 0)
(-0.0493428 0.0125176 0)
(-0.0525572 0.0176985 0)
(-0.0553255 0.0235032 0)
(-0.0578006 0.029894 0)
(-0.0602527 0.0368002 0)
(-0.0627506 0.0442055 0)
(-0.0650408 0.0521726 0)
(-0.0667807 0.0607536 0)
(-0.0678783 0.0698778 0)
(-0.0685376 0.0793664 0)
(-0.0689506 0.0890892 0)
(-0.0690357 0.0990851 0)
(-0.0685734 0.109484 0)
(-0.0675269 0.12032 0)
(-0.0660455 0.13151 0)
(-0.0641411 0.143035 0)
(-0.061595 0.155029 0)
(-0.0582671 0.167602 0)
(-0.0542243 0.180695 0)
(-0.0494336 0.194278 0)
(-0.0436583 0.208497 0)
(-0.036721 0.223381 0)
(-0.0285655 0.238903 0)
(-0.0191578 0.255512 0)
(-0.00804322 0.273042 0)
(0.00443756 0.2921 0)
(0.0187928 0.313706 0)
(0.0348513 0.3376 0)
(0.0524468 0.366732 0)
(0.0726698 0.401406 0)
(0.0964059 0.445251 0)
(0.115682 0.500453 0)
(0.180918 0.57306 0)
(0.209363 0.648677 0)
(0.268058 0.684277 0)
(0.0120663 -0.233276 0)
(0.0360691 -0.409491 0)
(0.0645063 -0.330292 0)
(0.0838822 -0.22459 0)
(0.0934177 -0.144911 0)
(0.0981339 -0.0857832 0)
(0.0986064 -0.0423111 0)
(0.0964661 -0.0111957 0)
(0.0928045 0.0106757 0)
(0.0874739 0.02554 0)
(0.0818516 0.0351423 0)
(0.0758235 0.0408391 0)
(0.069719 0.0437178 0)
(0.0635855 0.0446101 0)
(0.0575359 0.0441964 0)
(0.0518037 0.0429962 0)
(0.0462601 0.0413998 0)
(0.0410441 0.0397013 0)
(0.0363592 0.0380406 0)
(0.0320465 0.0364998 0)
(0.0280587 0.0352239 0)
(0.0246176 0.0343354 0)
(0.0217683 0.0338345 0)
(0.0193242 0.0336571 0)
(0.0172032 0.0337473 0)
(0.0154841 0.0340391 0)
(0.0142146 0.0344398 0)
(0.0133832 0.034874 0)
(0.0130215 0.0353023 0)
(0.0131768 0.0356696 0)
(0.013779 0.0358581 0)
(0.0146257 0.0357218 0)
(0.0155204 0.0351639 0)
(0.016382 0.034171 0)
(0.0172058 0.0327802 0)
(0.0179606 0.0310287 0)
(0.0185588 0.0289398 0)
(0.0189182 0.0265421 0)
(0.0190209 0.0238857 0)
(0.0188888 0.021036 0)
(0.0185082 0.0180575 0)
(0.0177927 0.0150096 0)
(0.0166373 0.0119574 0)
(0.0150154 0.00898095 0)
(0.0130295 0.00616698 0)
(0.010863 0.0035859 0)
(0.00866397 0.00127126 0)
(0.00644929 -0.000781219 0)
(0.00410391 -0.00259313 0)
(0.00147929 -0.00417493 0)
(-0.00147826 -0.00550781 0)
(-0.00466456 -0.00654676 0)
(-0.00787112 -0.00724286 0)
(-0.0109246 -0.00757121 0)
(-0.0138127 -0.00754657 0)
(-0.0166984 -0.0072137 0)
(-0.0197994 -0.00661346 0)
(-0.0232122 -0.00574395 0)
(-0.0268169 -0.0045445 0)
(-0.0303505 -0.00292003 0)
(-0.0336066 -0.000794443 0)
(-0.0366001 0.00184571 0)
(-0.0395476 0.0049553 0)
(-0.0426608 0.00848531 0)
(-0.0459286 0.0124431 0)
(-0.0490972 0.0168997 0)
(-0.0518869 0.0219282 0)
(-0.0542437 0.0275275 0)
(-0.0563608 0.0336115 0)
(-0.0584245 0.040091 0)
(-0.0603508 0.0469695 0)
(-0.0618272 0.0543419 0)
(-0.0626398 0.0622803 0)
(-0.0628998 0.0707293 0)
(-0.0628641 0.0795415 0)
(-0.0625561 0.0886221 0)
(-0.0617007 0.0980022 0)
(-0.0600872 0.107746 0)
(-0.0578349 0.11783 0)
(-0.055129 0.128185 0)
(-0.0518394 0.138828 0)
(-0.0476902 0.149854 0)
(-0.0426966 0.161284 0)
(-0.0370065 0.17305 0)
(-0.0304406 0.185176 0)
(-0.0228019 0.197817 0)
(-0.0141621 0.21103 0)
(-0.00412505 0.22473 0)
(0.00708044 0.239278 0)
(0.0195305 0.255092 0)
(0.03409 0.271835 0)
(0.0494752 0.291171 0)
(0.0667855 0.312622 0)
(0.0861052 0.338412 0)
(0.1072 0.369173 0)
(0.132195 0.40723 0)
(0.153574 0.454318 0)
(0.214596 0.514357 0)
(0.242482 0.575358 0)
(0.296528 0.603816 0)
(0.00951813 -0.257987 0)
(0.0283404 -0.449623 0)
(0.0502399 -0.360019 0)
(0.0649264 -0.242018 0)
(0.0717497 -0.153801 0)
(0.0747356 -0.0883729 0)
(0.07438 -0.041012 0)
(0.0719006 -0.00679098 0)
(0.0683656 0.0167906 0)
(0.0638093 0.032769 0)
(0.0589501 0.0430435 0)
(0.053742 0.0489905 0)
(0.0485619 0.0518668 0)
(0.0434171 0.0526186 0)
(0.0384243 0.0519642 0)
(0.0337727 0.0504146 0)
(0.0292844 0.0483544 0)
(0.0250404 0.0461006 0)
(0.0212286 0.0438467 0)
(0.0177908 0.0417321 0)
(0.0147402 0.0399152 0)
(0.0121998 0.0384781 0)
(0.0101067 0.0373714 0)
(0.0082924 0.0365191 0)
(0.00674307 0.0359021 0)
(0.00556152 0.0355149 0)
(0.00479845 0.0353124 0)
(0.00445301 0.0352263 0)
(0.00453998 0.0351886 0)
(0.00504612 0.0351139 0)
(0.00586004 0.0348889 0)
(0.00681958 0.0344116 0)
(0.0078227 0.0336414 0)
(0.00885122 0.0325964 0)
(0.00988929 0.0313029 0)
(0.010857 0.0297574 0)
(0.0116432 0.0279384 0)
(0.0121883 0.0258486 0)
(0.0125119 0.0235355 0)
(0.0126529 0.0210742 0)
(0.0125878 0.0185347 0)
(0.0122176 0.0159669 0)
(0.0114385 0.0134116 0)
(0.0102341 0.0109185 0)
(0.00870573 0.0085488 0)
(0.00701243 0.00635949 0)
(0.00526499 0.0043844 0)
(0.00345358 0.0026291 0)
(0.00146464 0.00108433 0)
(-0.000822148 -0.000252089 0)
(-0.00342562 -0.00136048 0)
(-0.00622541 -0.00220183 0)
(-0.00903 -0.00273674 0)
(-0.0117089 -0.00294871 0)
(-0.0142917 -0.00285444 0)
(-0.0169494 -0.00249039 0)
(-0.0198589 -0.00187938 0)
(-0.0230449 -0.000998459 0)
(-0.0263316 0.000224785 0)
(-0.0294607 0.00187736 0)
(-0.032293 0.00400757 0)
(-0.0349236 0.00659485 0)
(-0.0375908 0.00957317 0)
(-0.0404401 0.0128954 0)
(-0.0433558 0.0165852 0)
(-0.0460349 0.0207272 0)
(-0.048258 0.0253956 0)
(-0.0500936 0.0305893 0)
(-0.0518003 0.0362409 0)
(-0.0535024 0.0422943 0)
(-0.0549892 0.0487621 0)
(-0.0558925 0.0556897 0)
(-0.0560685 0.0630643 0)
(-0.055725 0.0707918 0)
(-0.0551143 0.0787886 0)
(-0.0541711 0.0870718 0)
(-0.0525891 0.0957104 0)
(-0.0502309 0.10469 0)
(-0.0472596 0.113901 0)
(-0.0437807 0.123297 0)
(-0.0395913 0.13296 0)
(-0.0344936 0.142945 0)
(-0.0286097 0.153177 0)
(-0.0220469 0.163621 0)
(-0.0145256 0.174368 0)
(-0.00585771 0.185447 0)
(0.00365731 0.19696 0)
(0.0143126 0.209161 0)
(0.0265885 0.221736 0)
(0.039588 0.235578 0)
(0.0542673 0.250746 0)
(0.0703354 0.267328 0)
(0.0876771 0.286837 0)
(0.106817 0.309313 0)
(0.127994 0.336499 0)
(0.152589 0.36957 0)
(0.173842 0.409895 0)
(0.229096 0.460167 0)
(0.25347 0.510278 0)
(0.300348 0.53348 0)
(0.00672994 -0.276186 0)
(0.0195013 -0.479279 0)
(0.0340647 -0.381335 0)
(0.043287 -0.254112 0)
(0.047143 -0.159267 0)
(0.048163 -0.089402 0)
(0.0470531 -0.0388199 0)
(0.0447098 -0.00269821 0)
(0.041452 0.0223292 0)
(0.0377938 0.0390058 0)
(0.0339565 0.0495568 0)
(0.029867 0.0555945 0)
(0.0260016 0.0584241 0)
(0.0222457 0.0590124 0)
(0.0185739 0.0580928 0)
(0.0151293 0.0561749 0)
(0.0118139 0.0536702 0)
(0.00874091 0.0509496 0)
(0.00605942 0.0482445 0)
(0.00372006 0.0456896 0)
(0.00172281 0.0434016 0)
(9.84047e-05 0.0414256 0)
(-0.00124865 0.0397211 0)
(-0.00239437 0.0382631 0)
(-0.00326779 0.037083 0)
(-0.00378628 0.0361931 0)
(-0.00396105 0.0355336 0)
(-0.00381691 0.0350095 0)
(-0.00333633 0.03454 0)
(-0.00253491 0.0340562 0)
(-0.00151248 0.0334869 0)
(-0.000380785 0.0327752 0)
(0.000817074 0.0319015 0)
(0.00207483 0.0308711 0)
(0.00333505 0.0296775 0)
(0.00447702 0.0282879 0)
(0.00540137 0.0266719 0)
(0.00610592 0.0248403 0)
(0.00666104 0.0228519 0)
(0.00710942 0.0207814 0)
(0.00739362 0.0186822 0)
(0.00738205 0.0165769 0)
(0.00696815 0.0144787 0)
(0.00615565 0.0124167 0)
(0.00506104 0.0104423 0)
(0.00383371 0.00861264 0)
(0.00255443 0.00696735 0)
(0.00118477 0.00551795 0)
(-0.000396081 0.00425735 0)
(-0.00229123 0.00318077 0)
(-0.00449261 0.00230274 0)
(-0.00686567 0.00165759 0)
(-0.00923214 0.00128254 0)
(-0.0114968 0.00119502 0)
(-0.0137214 0.00138265 0)
(-0.0160762 0.00181708 0)
(-0.0186933 0.00248635 0)
(-0.0215326 0.00342159 0)
(-0.0243807 0.00469341 0)
(-0.0270055 0.00637336 0)
(-0.0293485 0.00848706 0)
(-0.0315807 0.0109989 0)
(-0.0339489 0.0138474 0)
(-0.0365289 0.017006 0)
(-0.0391131 0.0205126 0)
(-0.041365 0.0244376 0)
(-0.0431151 0.0288131 0)
(-0.0444979 0.0336013 0)
(-0.045772 0.0387435 0)
(-0.0469975 0.0442431 0)
(-0.0479342 0.0501771 0)
(-0.0482945 0.056602 0)
(-0.0480526 0.0634527 0)
(-0.0474134 0.0705717 0)
(-0.0464705 0.0778595 0)
(-0.0450291 0.085362 0)
(-0.0428617 0.0931674 0)
(-0.0400155 0.101244 0)
(-0.0366661 0.109467 0)
(-0.0327432 0.117809 0)
(-0.0279929 0.126372 0)
(-0.0223907 0.135184 0)
(-0.0161181 0.14413 0)
(-0.00914107 0.153217 0)
(-0.0012651 0.16264 0)
(0.0076248 0.172365 0)
(0.0176392 0.182248 0)
(0.0283993 0.192829 0)
(0.0403491 0.204048 0)
(0.0537821 0.215838 0)
(0.0680346 0.229322 0)
(0.0834159 0.243871 0)
(0.100389 0.261089 0)
(0.118714 0.280988 0)
(0.139049 0.30505 0)
(0.162235 0.334044 0)
(0.182167 0.369085 0)
(0.231013 0.412288 0)
(0.251069 0.454983 0)
(0.290266 0.474467 0)
(0.00354961 -0.287402 0)
(0.00956105 -0.496616 0)
(0.0161703 -0.393155 0)
(0.0194675 -0.26016 0)
(0.0201064 -0.161136 0)
(0.0194177 -0.0887571 0)
(0.0176403 -0.0360709 0)
(0.0153614 0.00097448 0)
(0.0128114 0.0266859 0)
(0.010074 0.0436961 0)
(0.00757864 0.0543183 0)
(0.00501414 0.0603465 0)
(0.00266459 0.0630774 0)
(0.00037656 0.0634417 0)
(-0.00186689 0.0622115 0)
(-0.00392381 0.0599607 0)
(-0.00584348 0.0571392 0)
(-0.00754136 0.0541137 0)
(-0.00895822 0.0510838 0)
(-0.0101495 0.0481543 0)
(-0.0110969 0.0454316 0)
(-0.0117948 0.0429814 0)
(-0.0123207 0.0408094 0)
(-0.0126738 0.0389285 0)
(-0.0127619 0.0373701 0)
(-0.0125712 0.0361168 0)
(-0.0121731 0.0350835 0)
(-0.0115768 0.0341774 0)
(-0.0107177 0.0333448 0)
(-0.0095891 0.0325541 0)
(-0.00828564 0.0317644 0)
(-0.00690132 0.0309287 0)
(-0.00545836 0.0300139 0)
(-0.00396785 0.0290004 0)
(-0.00251294 0.0278642 0)
(-0.00122093 0.0265747 0)
(-0.000153931 0.0251183 0)
(0.000743302 0.0235201 0)
(0.001571 0.021837 0)
(0.00235207 0.0201242 0)
(0.00298324 0.0184076 0)
(0.00330388 0.0166855 0)
(0.00321708 0.0149561 0)
(0.00276044 0.0132438 0)
(0.00207561 0.0116009 0)
(0.00130623 0.010087 0)
(0.000500578 0.00874153 0)
(-0.000415021 0.00757209 0)
(-0.00157516 0.00656524 0)
(-0.00306777 0.00571133 0)
(-0.00485495 0.00502465 0)
(-0.00678331 0.00454363 0)
(-0.00868482 0.00431071 0)
(-0.0104992 0.00434713 0)
(-0.0123205 0.00464313 0)
(-0.014319 0.00517439 0)
(-0.0165865 0.00593385 0)
(-0.0190298 0.00695309 0)
(-0.0214141 0.00829128 0)
(-0.0235427 0.0099958 0)
(-0.0254256 0.0120656 0)
(-0.0272771 0.0144533 0)
(-0.0293177 0.0171113 0)
(-0.0315463 0.0200458 0)
(-0.0337027 0.0233262 0)
(-0.0354845 0.0270277 0)
(-0.0368182 0.0311585 0)
(-0.037893 0.0356479 0)
(-0.0389004 0.0404159 0)
(-0.0397637 0.0454594 0)
(-0.0401884 0.050853 0)
(-0.0400012 0.0566539 0)
(-0.039356 0.0628184 0)
(-0.0385051 0.0692366 0)
(-0.0374092 0.0758441 0)
(-0.0357369 0.08266 0)
(-0.0332952 0.0896976 0)
(-0.0302555 0.096891 0)
(-0.0267877 0.104164 0)
(-0.0226905 0.111539 0)
(-0.0177037 0.119087 0)
(-0.0119701 0.126795 0)
(-0.0056842 0.134589 0)
(0.00143304 0.142472 0)
(0.00952753 0.150565 0)
(0.0182086 0.158981 0)
(0.027865 0.16764 0)
(0.0387414 0.176548 0)
(0.050247 0.186282 0)
(0.0629037 0.196619 0)
(0.0765469 0.208083 0)
(0.0911847 0.221043 0)
(0.107163 0.23621 0)