/*--------------------------------*- C++ -*----------------------------------*\
| =========                 |                                                 |
| \\      /  F ield         | OpenFOAM: The Open Source CFD Toolbox           |
|  \\    /   O peration     | Version:  2406                                  |
|   \\  /    A nd           | Website:  www.openfoam.com                      |
|    \\/     M anipulation  |                                                 |
\*---------------------------------------------------------------------------*/
FoamFile
{
    version     2.0;
    format      ascii;
    arch        "LSB;label=32;scalar=64";
    class       surfaceScalarField;
    location    "10";
    object      phi;
}
// * * * * * * * * * * * * * * * * * * * * * * * * * * * * * * * * * * * * * //

dimensions      [0 3 -1 0 0 0 0];

oriented        oriented;

internalField   nonuniform List<scalar> 
276
(
5.34577e-09
1.54228e-10
5.10947e-09
2.36299e-10
4.87808e-09
2.31397e-10
4.66754e-09
2.10531e-10
4.48203e-09
1.85518e-10
4.32349e-09
1.58533e-10
4.19146e-09
1.32035e-10
4.08341e-09
1.08053e-10
3.99584e-09
8.75669e-11
3.92544e-09
7.04015e-11
3.86924e-09
5.61984e-11
3.82465e-09
4.45912e-11
3.78945e-09
3.52027e-11
3.76178e-09
2.7669e-11
3.74011e-09
2.16622e-11
3.72322e-09
1.68983e-11
3.71008e-09
1.31382e-11
3.6999e-09
1.01826e-11
3.69203e-09
7.86821e-12
3.68597e-09
6.06204e-12
3.68131e-09
4.65701e-12
3.67774e-09
3.56738e-12
3.67502e-09
2.72484e-12
3.67294e-09
2.07526e-12
3.67136e-09
1.57587e-12
3.67017e-09
1.19306e-12
3.66927e-09
9.00432e-13
3.66859e-09
6.77399e-13
3.66809e-09
5.07904e-13
3.66771e-09
3.79482e-13
3.66743e-09
2.8248e-13
3.66722e-09
2.0945e-13
3.66706e-09
1.54664e-13
3.66695e-09
1.13741e-13
3.66687e-09
8.33553e-14
3.66681e-09
6.09858e-14
3.66676e-09
4.48304e-14
3.66673e-09
3.34483e-14
3.6667e-09
2.6724e-14
2.26196e-14
5.65423e-09
1.49143e-18
5.89053e-09
2.73838e-18
6.12192e-09
3.49266e-18
6.33246e-09
3.9922e-18
6.51797e-09
4.06522e-18
6.67651e-09
4.14575e-18
6.80854e-09
4.50047e-18
6.91659e-09
5.15736e-18
7.00416e-09
6.01168e-18
7.07456e-09
6.89182e-18
7.13076e-09
7.55403e-18
7.17535e-09
7.6306e-18
7.21055e-09
6.59169e-18
7.23822e-09
3.78162e-18
7.25989e-09
-1.50327e-18
7.27678e-09
-9.94627e-18
7.28992e-09
-2.21882e-17
7.30011e-09
-3.88284e-17
7.30797e-09
-6.03786e-17
7.31404e-09
-8.71015e-17
7.31869e-09
-1.18771e-16
7.32226e-09
-1.54495e-16
7.32499e-09
-1.92576e-16
7.32706e-09
-2.30243e-16
7.32864e-09
-2.63477e-16
7.32983e-09
-2.877e-16
7.33073e-09
-2.99416e-16
7.33141e-09
-2.97423e-16
7.33191e-09
-2.82272e-16
7.33229e-09
-2.54787e-16
7.33257e-09
-2.16297e-16
7.33278e-09
-1.71086e-16
7.33294e-09
-1.26968e-16
7.33305e-09
-9.18503e-17
7.33313e-09
-6.76579e-17
7.3332e-09
-4.43278e-17
7.33324e-09
-1.24249e-17
7.33327e-09
2.72743e-17
7.3333e-09
8.11636e-17
7.12362e-17
5.65423e-09
-1.54228e-10
5.89053e-09
-2.36299e-10
6.12192e-09
-2.31397e-10
6.33246e-09
-2.10531e-10
6.51797e-09
-1.85518e-10
6.67651e-09
-1.58533e-10
6.80854e-09
-1.32035e-10
6.91659e-09
-1.08053e-10
7.00416e-09
-8.75669e-11
7.07456e-09
-7.04015e-11
7.13076e-09
-5.61984e-11
7.17535e-09
-4.45912e-11
7.21055e-09
-3.52027e-11
7.23822e-09
-2.7669e-11
7.25989e-09
-2.16621e-11
7.27678e-09
-1.68983e-11
7.28992e-09
-1.31381e-11
7.30011e-09
-1.01825e-11
7.30797e-09
-7.86806e-12
7.31404e-09
-6.06184e-12
7.31869e-09
-4.65677e-12
7.32226e-09
-3.56709e-12
7.32498e-09
-2.72452e-12
7.32706e-09
-2.0749e-12
7.32864e-09
-1.57549e-12
7.32983e-09
-1.19266e-12
7.33073e-09
-9.00026e-13
7.33141e-09
-6.76997e-13
7.33191e-09
-5.07516e-13
7.33229e-09
-3.79115e-13
7.33257e-09
-2.82142e-13
7.33278e-09
-2.09146e-13
7.33294e-09
-1.54399e-13
7.33305e-09
-1.1352e-13
7.33313e-09
-8.31818e-14
7.3332e-09
-6.08611e-14
7.33324e-09
-4.47516e-14
7.33327e-09
-3.34072e-14
7.3333e-09
-2.67146e-14
-2.26177e-14
5.34577e-09
5.10947e-09
4.87808e-09
4.66754e-09
4.48203e-09
4.32349e-09
4.19146e-09
4.08341e-09
3.99584e-09
3.92544e-09
3.86924e-09
3.82465e-09
3.78945e-09
3.76178e-09
3.74011e-09
3.72322e-09
3.71008e-09
3.6999e-09
3.69203e-09
3.68597e-09
3.68131e-09
3.67774e-09
3.67502e-09
3.67294e-09
3.67136e-09
3.67017e-09
3.66927e-09
3.66859e-09
3.66809e-09
3.66771e-09
3.66743e-09
3.66722e-09
3.66706e-09
3.66695e-09
3.66687e-09
3.66681e-09
3.66676e-09
3.66673e-09
3.6667e-09
)
;

boundaryField
{
    inlet
    {
        type            calculated;
        value           nonuniform List<scalar> 4(-5.5e-09 -5.5e-09 -5.5e-09 -5.5e-09);
    }
    outlet
    {
        type            calculated;
        value           nonuniform List<scalar> 4(3.66668e-09 7.33332e-09 7.33332e-09 3.66668e-09);
    }
    walls
    {
        type            calculated;
        value           uniform 0;
    }
    frontAndBack
    {
        type            empty;
    }
}


// ************************************************************************* //
