/*--------------------------------*- C++ -*----------------------------------*\
| =========                 |                                                 |
| \\      /  F ield         | OpenFOAM: The Open Source CFD Toolbox           |
|  \\    /   O peration     | Version:  2406                                  |
|   \\  /    A nd           | Website:  www.openfoam.com                      |
|    \\/     M anipulation  |                                                 |
\*---------------------------------------------------------------------------*/
FoamFile
{
    version     2.0;
    format      ascii;
    arch        "LSB;label=32;scalar=64";
    class       volVectorField;
    location    "10";
    object      U;
}
// * * * * * * * * * * * * * * * * * * * * * * * * * * * * * * * * * * * * * //

dimensions      [0 1 -1 0 0 0 0];

internalField   nonuniform List<vector> 
160
(
(0.0189987 0.000658025 0)
(0.0187799 0.00126485 0)
(0.0182316 0.00141777 0)
(0.0174121 0.00136971 0)
(0.0166273 0.00123816 0)
(0.0159818 0.0010702 0)
(0.0154583 0.000893557 0)
(0.0150283 0.000726894 0)
(0.0146761 0.000579723 0)
(0.014391 0.000455089 0)
(0.0141628 0.000352584 0)
(0.0139814 0.000270157 0)
(0.0138379 0.000205043 0)
(0.0137248 0.000154322 0)
(0.0136361 0.000115255 0)
(0.0135668 8.54438e-05 0)
(0.0135128 6.28809e-05 0)
(0.0134709 4.59302e-05 0)
(0.0134385 3.32837e-05 0)
(0.0134134 2.39115e-05 0)
(0.0133942 1.70124e-05 0)
(0.0133794 1.1969e-05 0)
(0.0133681 8.30952e-06 0)
(0.0133595 5.67575e-06 0)
(0.013353 3.79749e-06 0)
(0.013348 2.47208e-06 0)
(0.0133443 1.5484e-06 0)
(0.0133414 9.14373e-07 0)
(0.0133393 4.87401e-07 0)
(0.0133377 2.06971e-07 0)
(0.0133365 2.90556e-08 0)
(0.0133357 -7.81237e-08 0)
(0.013335 -1.37272e-07 0)
(0.0133345 -1.64396e-07 0)
(0.0133342 -1.70535e-07 0)
(0.0133339 -1.63083e-07 0)
(0.0133337 -1.46454e-07 0)
(0.0133336 -1.22964e-07 0)
(0.0133335 -9.12494e-08 0)
(0.0133334 -5.22201e-08 0)
(0.0201135 0.000651381 0)
(0.020894 0.00123746 0)
(0.0218079 0.00139043 0)
(0.0226522 0.00136413 0)
(0.0233815 0.00126669 0)
(0.0240064 0.00113688 0)
(0.0245353 0.000995369 0)
(0.0249729 0.000855968 0)
(0.025328 0.000726315 0)
(0.0256131 0.000609774 0)
(0.0258409 0.000507394 0)
(0.0260219 0.000419007 0)
(0.0261651 0.000343745 0)
(0.0262778 0.000280366 0)
(0.0263661 0.000227476 0)
(0.026435 0.00018368 0)
(0.0264887 0.000147659 0)
(0.0265303 0.000118212 0)
(0.0265625 9.4271e-05 0)
(0.0265873 7.49028e-05 0)
(0.0266064 5.93063e-05 0)
(0.026621 4.68006e-05 0)
(0.0266322 3.68134e-05 0)
(0.0266408 2.88677e-05 0)
(0.0266472 2.25689e-05 0)
(0.0266522 1.75926e-05 0)
(0.0266559 1.36742e-05 0)
(0.0266587 1.05984e-05 0)
(0.0266608 8.19149e-06 0)
(0.0266623 6.3136e-06 0)
(0.0266635 4.85273e-06 0)
(0.0266644 3.71954e-06 0)
(0.026665 2.84307e-06 0)
(0.0266655 2.16715e-06 0)
(0.0266658 1.64766e-06 0)
(0.0266661 1.24991e-06 0)
(0.0266663 9.47646e-07 0)
(0.0266664 7.18361e-07 0)
(0.0266665 5.54859e-07 0)
(0.0266666 4.17241e-07 0)
(0.0201135 -0.000651381 0)
(0.020894 -0.00123746 0)
(0.0218079 -0.00139043 0)
(0.0226522 -0.00136413 0)
(0.0233815 -0.00126669 0)
(0.0240064 -0.00113688 0)
(0.0245353 -0.000995369 0)
(0.0249729 -0.000855968 0)
(0.025328 -0.000726315 0)
(0.0256131 -0.000609774 0)
(0.0258409 -0.000507394 0)
(0.0260219 -0.000419007 0)
(0.0261651 -0.000343745 0)
(0.0262778 -0.000280366 0)
(0.0263661 -0.000227476 0)
(0.026435 -0.00018368 0)
(0.0264887 -0.000147659 0)
(0.0265303 -0.000118212 0)
(0.0265625 -9.42709e-05 0)
(0.0265873 -7.49027e-05 0)
(0.0266064 -5.93062e-05 0)
(0.026621 -4.68007e-05 0)
(0.0266322 -3.68137e-05 0)
(0.0266408 -2.88681e-05 0)
(0.0266472 -2.25694e-05 0)
(0.0266522 -1.75933e-05 0)
(0.0266559 -1.36749e-05 0)
(0.0266587 -1.05992e-05 0)
(0.0266608 -8.19218e-06 0)
(0.0266623 -6.31416e-06 0)
(0.0266635 -4.85309e-06 0)
(0.0266644 -3.71968e-06 0)
(0.026665 -2.843e-06 0)
(0.0266655 -2.16697e-06 0)
(0.0266658 -1.64747e-06 0)
(0.0266661 -1.24973e-06 0)
(0.0266663 -9.47419e-07 0)
(0.0266664 -7.17992e-07 0)
(0.0266665 -5.54201e-07 0)
(0.0266666 -4.1663e-07 0)
(0.0189987 -0.000658025 0)
(0.0187799 -0.00126485 0)
(0.0182316 -0.00141777 0)
(0.0174121 -0.00136971 0)
(0.0166273 -0.00123816 0)
(0.0159818 -0.0010702 0)
(0.0154583 -0.000893557 0)
(0.0150283 -0.000726894 0)
(0.0146761 -0.000579723 0)
(0.014391 -0.000455089 0)
(0.0141628 -0.000352584 0)
(0.0139814 -0.000270156 0)
(0.0138379 -0.000205042 0)
(0.0137248 -0.000154322 0)
(0.0136361 -0.000115255 0)
(0.0135668 -8.54435e-05 0)
(0.0135128 -6.28805e-05 0)
(0.0134709 -4.59296e-05 0)
(0.0134385 -3.3283e-05 0)
(0.0134134 -2.39106e-05 0)
(0.0133942 -1.70113e-05 0)
(0.0133794 -1.19677e-05 0)
(0.0133681 -8.308e-06 0)
(0.0133595 -5.67404e-06 0)
(0.013353 -3.79561e-06 0)
(0.013348 -2.47008e-06 0)
(0.0133443 -1.54633e-06 0)
(0.0133414 -9.12296e-07 0)
(0.0133393 -4.85374e-07 0)
(0.0133377 -2.05045e-07 0)
(0.0133365 -2.72741e-08 0)
(0.0133357 7.97208e-08 0)
(0.013335 1.38651e-07 0)
(0.0133345 1.65534e-07 0)
(0.0133342 1.71423e-07 0)
(0.0133339 1.63722e-07 0)
(0.0133337 1.46857e-07 0)
(0.0133336 1.2316e-07 0)
(0.0133335 9.12556e-08 0)
(0.0133334 5.21391e-08 0)
)
;

boundaryField
{
    inlet
    {
        type            fixedValue;
        value           uniform (0.02 0 0);
    }
    outlet
    {
        type            zeroGradient;
    }
    walls
    {
        type            noSlip;
    }
    frontAndBack
    {
        type            empty;
    }
}


// ************************************************************************* //
