/*--------------------------------*- C++ -*----------------------------------*\
| =========                 |                                                 |
| \\      /  F ield         | OpenFOAM: The Open Source CFD Toolbox           |
|  \\    /   O peration     | Version:  2406                                  |
|   \\  /    A nd           | Website:  www.openfoam.com                      |
|    \\/     M anipulation  |                                                 |
\*---------------------------------------------------------------------------*/
FoamFile
{
    version     2.0;
    format      ascii;
    arch        "LSB;label=32;scalar=64";
    class       volVectorField;
    location    "10";
    object      U;
}
// * * * * * * * * * * * * * * * * * * * * * * * * * * * * * * * * * * * * * //

dimensions      [0 1 -1 0 0 0 0];

internalField   nonuniform List<vector> 
20
(
(0.0186771 -5.91352e-11 0)
(0.0195337 -6.65282e-11 0)
(0.0200936 -3.96137e-11 0)
(0.0201619 -3.3743e-11 0)
(0.0200603 -5.92539e-11 0)
(0.0199913 4.40135e-11 0)
(0.0199798 1.10989e-10 0)
(0.019991 -1.84504e-10 0)
(0.0200003 -1.86999e-10 0)
(0.020002 8.18097e-11 0)
(0.0186771 -5.91352e-11 0)
(0.0195337 -6.65282e-11 0)
(0.0200936 -3.96135e-11 0)
(0.0201619 -3.37432e-11 0)
(0.0200603 -5.92538e-11 0)
(0.0199913 4.40135e-11 0)
(0.0199798 1.1099e-10 0)
(0.019991 -1.84503e-10 0)
(0.0200003 -1.87e-10 0)
(0.020002 8.18094e-11 0)
)
;

boundaryField
{
    inlet
    {
        type            fixedValue;
        value           uniform (0.02 0 0);
    }
    outlet
    {
        type            zeroGradient;
    }
    walls
    {
        type            noSlip;
    }
    frontAndBack
    {
        type            empty;
    }
}


// ************************************************************************* //
