/*--------------------------------*- C++ -*----------------------------------*\
| =========                 |                                                 |
| \\      /  F ield         | OpenFOAM: The Open Source CFD Toolbox           |
|  \\    /   O peration     | Version:  2406                                  |
|   \\  /    A nd           | Website:  www.openfoam.com                      |
|    \\/     M anipulation  |                                                 |
\*---------------------------------------------------------------------------*/
FoamFile
{
    version     2.0;
    format      ascii;
    arch        "LSB;label=32;scalar=64";
    class       volScalarField;
    location    "4";
    object      p;
}
// * * * * * * * * * * * * * * * * * * * * * * * * * * * * * * * * * * * * * //

dimensions      [0 2 -2 0 0 0 0];

internalField   nonuniform List<scalar> 
160
(
0.00110945
0.0010467
0.000990537
0.000946862
0.000909027
0.000873321
0.000839246
0.000806941
0.000776275
0.000746974
0.000718785
0.000691502
0.000664954
0.000638997
0.000613511
0.000588396
0.000563572
0.000538976
0.000514555
0.000490271
0.000466091
0.000441992
0.000417954
0.000393962
0.000370006
0.000346077
0.000322168
0.000298274
0.000274391
0.000250516
0.000226647
0.000202783
0.000178922
0.000155063
0.000131206
0.00010735
8.34938e-05
5.96383e-05
3.57829e-05
1.19276e-05
0.00100346
0.00098618
0.000960366
0.000931008
0.00090037
0.000869185
0.000838009
0.000807369
0.000777571
0.000748671
0.000720604
0.000693279
0.000666597
0.000640465
0.000614792
0.000589494
0.0005645
0.000539751
0.000515197
0.000490798
0.000466521
0.000442341
0.000418235
0.000394188
0.000370186
0.00034622
0.000322281
0.000298363
0.000274461
0.000250571
0.00022669
0.000202816
0.000178947
0.000155083
0.00013122
0.00010736
8.35016e-05
5.96436e-05
3.57861e-05
1.19287e-05
0.00100346
0.00098618
0.000960366
0.000931008
0.00090037
0.000869185
0.000838009
0.000807369
0.000777571
0.000748671
0.000720604
0.000693279
0.000666597
0.000640465
0.000614792
0.000589494
0.0005645
0.000539751
0.000515197
0.000490798
0.000466521
0.000442341
0.000418235
0.000394188
0.000370186
0.00034622
0.000322281
0.000298363
0.000274461
0.000250571
0.00022669
0.000202816
0.000178947
0.000155083
0.00013122
0.00010736
8.35015e-05
5.96435e-05
3.57861e-05
1.19287e-05
0.00110945
0.0010467
0.000990537
0.000946862
0.000909027
0.000873321
0.000839246
0.000806941
0.000776275
0.000746974
0.000718785
0.000691502
0.000664954
0.000638997
0.000613511
0.000588396
0.000563572
0.000538976
0.000514555
0.000490271
0.000466091
0.000441992
0.000417954
0.000393962
0.000370006
0.000346077
0.000322168
0.000298274
0.000274391
0.000250516
0.000226647
0.000202783
0.000178922
0.000155063
0.000131206
0.00010735
8.34938e-05
5.96383e-05
3.57828e-05
1.19276e-05
)
;

boundaryField
{
    inlet
    {
        type            fixedFluxPressure;
        gradient        uniform 0;
        value           nonuniform List<scalar> 4(0.00110945 0.00100346 0.00100346 0.00110945);
    }
    outlet
    {
        type            fixedValue;
        value           uniform 0;
    }
    walls
    {
        type            zeroGradient;
    }
    frontAndBack
    {
        type            empty;
    }
}


// ************************************************************************* //
