/*--------------------------------*- C++ -*----------------------------------*\
| =========                 |                                                 |
| \\      /  F ield         | OpenFOAM: The Open Source CFD Toolbox           |
|  \\    /   O peration     | Version:  2406                                  |
|   \\  /    A nd           | Website:  www.openfoam.com                      |
|    \\/     M anipulation  |                                                 |
\*---------------------------------------------------------------------------*/
FoamFile
{
    version     2.0;
    format      ascii;
    arch        "LSB;label=32;scalar=64";
    class       surfaceScalarField;
    location    "4";
    object      phi;
}
// * * * * * * * * * * * * * * * * * * * * * * * * * * * * * * * * * * * * * //

dimensions      [0 3 -1 0 0 0 0];

oriented        oriented;

internalField   nonuniform List<scalar> 
276
(
5.34577e-09
1.54228e-10
5.10947e-09
2.36299e-10
4.87808e-09
2.31397e-10
4.66754e-09
2.10531e-10
4.48203e-09
1.85518e-10
4.32349e-09
1.58533e-10
4.19146e-09
1.32035e-10
4.08341e-09
1.08053e-10
3.99584e-09
8.75669e-11
3.92544e-09
7.04016e-11
3.86924e-09
5.61986e-11
3.82465e-09
4.45915e-11
3.78945e-09
3.52032e-11
3.76178e-09
2.76699e-11
3.74011e-09
2.16633e-11
3.72321e-09
1.68998e-11
3.71007e-09
1.31398e-11
3.69989e-09
1.01843e-11
3.69202e-09
7.86948e-12
3.68596e-09
6.06251e-12
3.6813e-09
4.65616e-12
3.67773e-09
3.56462e-12
3.67501e-09
2.7196e-12
3.67295e-09
2.06699e-12
3.67138e-09
1.56414e-12
3.67021e-09
1.17755e-12
3.66932e-09
8.81033e-13
3.66867e-09
6.54171e-13
3.66819e-09
4.81118e-13
3.66784e-09
3.49595e-13
3.66759e-09
2.50111e-13
3.66742e-09
1.75339e-13
3.6673e-09
1.19625e-13
3.66722e-09
7.861e-14
3.66717e-09
4.8933e-14
3.66714e-09
2.80187e-14
3.66713e-09
1.391e-14
3.66713e-09
5.04266e-15
3.66713e-09
7.2858e-17
-2.52294e-15
5.65423e-09
1.27488e-17
5.89053e-09
2.92359e-17
6.12193e-09
3.72951e-17
6.33246e-09
4.12955e-17
6.51797e-09
4.01575e-17
6.67651e-09
3.59087e-17
6.80854e-09
3.05954e-17
6.91659e-09
2.52489e-17
7.00416e-09
2.03825e-17
7.07456e-09
1.65225e-17
7.13076e-09
1.37597e-17
7.17535e-09
1.13913e-17
7.21056e-09
8.38113e-18
7.23823e-09
3.70552e-18
7.25989e-09
-3.51314e-18
7.27679e-09
-1.39884e-17
7.28993e-09
-2.8038e-17
7.30011e-09
-4.538e-17
7.30798e-09
-6.4642e-17
7.31404e-09
-8.34464e-17
7.3187e-09
-9.89286e-17
7.32226e-09
-1.08065e-16
7.32498e-09
-1.08342e-16
7.32705e-09
-9.83249e-17
7.32861e-09
-7.78487e-17
7.32979e-09
-4.77192e-17
7.33067e-09
-9.88323e-18
7.33132e-09
3.31986e-17
7.33181e-09
7.93205e-17
7.33215e-09
1.26118e-16
7.3324e-09
1.70343e-16
7.33258e-09
2.10635e-16
7.3327e-09
2.43143e-16
7.33278e-09
2.63154e-16
7.33283e-09
2.7136e-16
7.33285e-09
2.66705e-16
7.33287e-09
2.5011e-16
7.33287e-09
2.39946e-16
7.33287e-09
2.55205e-16
1.91159e-16
5.65423e-09
-1.54228e-10
5.89053e-09
-2.36299e-10
6.12193e-09
-2.31397e-10
6.33246e-09
-2.10531e-10
6.51797e-09
-1.85518e-10
6.67651e-09
-1.58533e-10
6.80854e-09
-1.32035e-10
6.91659e-09
-1.08053e-10
7.00416e-09
-8.75669e-11
7.07456e-09
-7.04015e-11
7.13076e-09
-5.61985e-11
7.17535e-09
-4.45915e-11
7.21056e-09
-3.52032e-11
7.23823e-09
-2.76699e-11
7.25989e-09
-2.16633e-11
7.27679e-09
-1.68998e-11
7.28993e-09
-1.31398e-11
7.30011e-09
-1.01842e-11
7.30798e-09
-7.86947e-12
7.31404e-09
-6.06249e-12
7.3187e-09
-4.65614e-12
7.32226e-09
-3.56459e-12
7.32498e-09
-2.71955e-12
7.32705e-09
-2.06692e-12
7.32861e-09
-1.56405e-12
7.32979e-09
-1.17743e-12
7.33067e-09
-8.80872e-13
7.33132e-09
-6.53979e-13
7.33181e-09
-4.80896e-13
7.33216e-09
-3.49347e-13
7.33241e-09
-2.49841e-13
7.33258e-09
-1.75052e-13
7.3327e-09
-1.19331e-13
7.33278e-09
-7.83231e-14
7.33283e-09
-4.86714e-14
7.33286e-09
-2.77962e-14
7.33287e-09
-1.37303e-14
7.33288e-09
-4.90243e-15
7.33288e-09
1.57758e-16
2.66272e-15
5.34577e-09
5.10947e-09
4.87808e-09
4.66754e-09
4.48203e-09
4.32349e-09
4.19146e-09
4.08341e-09
3.99584e-09
3.92544e-09
3.86924e-09
3.82465e-09
3.78945e-09
3.76178e-09
3.74011e-09
3.72321e-09
3.71007e-09
3.69989e-09
3.69202e-09
3.68596e-09
3.6813e-09
3.67773e-09
3.67501e-09
3.67295e-09
3.67138e-09
3.67021e-09
3.66933e-09
3.66867e-09
3.66819e-09
3.66784e-09
3.66759e-09
3.66742e-09
3.6673e-09
3.66722e-09
3.66717e-09
3.66715e-09
3.66713e-09
3.66713e-09
3.66713e-09
)
;

boundaryField
{
    inlet
    {
        type            calculated;
        value           nonuniform List<scalar> 4(-5.5e-09 -5.5e-09 -5.5e-09 -5.5e-09);
    }
    outlet
    {
        type            calculated;
        value           nonuniform List<scalar> 4(3.66713e-09 7.33287e-09 7.33287e-09 3.66713e-09);
    }
    walls
    {
        type            calculated;
        value           uniform 0;
    }
    frontAndBack
    {
        type            empty;
    }
}


// ************************************************************************* //
