/*--------------------------------*- C++ -*----------------------------------*\
| =========                 |                                                 |
| \\      /  F ield         | OpenFOAM: The Open Source CFD Toolbox           |
|  \\    /   O peration     | Version:  2406                                  |
|   \\  /    A nd           | Website:  www.openfoam.com                      |
|    \\/     M anipulation  |                                                 |
\*---------------------------------------------------------------------------*/
FoamFile
{
    version     2.0;
    format      ascii;
    arch        "LSB;label=32;scalar=64";
    class       volVectorField;
    location    "4";
    object      U;
}
// * * * * * * * * * * * * * * * * * * * * * * * * * * * * * * * * * * * * * //

dimensions      [0 1 -1 0 0 0 0];

internalField   nonuniform List<vector> 
20
(
(0.0186787 -7.16446e-10 0)
(0.019534 1.25665e-09 0)
(0.0200905 6.73577e-10 0)
(0.0201731 1.19257e-10 0)
(0.0200721 -1.0685e-08 0)
(0.019983 -1.03278e-08 0)
(0.0199663 2.10008e-09 0)
(0.0199904 9.92317e-09 0)
(0.0200075 -1.48273e-10 0)
(0.0200016 -3.54447e-09 0)
(0.0186787 -7.16455e-10 0)
(0.019534 1.25661e-09 0)
(0.0200905 6.73602e-10 0)
(0.0201731 1.19458e-10 0)
(0.0200721 -1.06849e-08 0)
(0.019983 -1.03279e-08 0)
(0.0199663 2.09966e-09 0)
(0.0199904 9.92234e-09 0)
(0.0200074 -1.49664e-10 0)
(0.0200016 -3.5457e-09 0)
)
;

boundaryField
{
    inlet
    {
        type            fixedValue;
        value           uniform (0.02 0 0);
    }
    outlet
    {
        type            zeroGradient;
    }
    walls
    {
        type            noSlip;
    }
    frontAndBack
    {
        type            empty;
    }
}


// ************************************************************************* //
