/*--------------------------------*- C++ -*----------------------------------*\
| =========                 |                                                 |
| \\      /  F ield         | OpenFOAM: The Open Source CFD Toolbox           |
|  \\    /   O peration     | Version:  2406                                  |
|   \\  /    A nd           | Website:  www.openfoam.com                      |
|    \\/     M anipulation  |                                                 |
\*---------------------------------------------------------------------------*/
FoamFile
{
    version     2.0;
    format      ascii;
    arch        "LSB;label=32;scalar=64";
    class       volVectorField;
    location    "4";
    object      U;
}
// * * * * * * * * * * * * * * * * * * * * * * * * * * * * * * * * * * * * * //

dimensions      [0 1 -1 0 0 0 0];

internalField   nonuniform List<vector> 
160
(
(0.0189987 0.000658025 0)
(0.0187799 0.00126485 0)
(0.0182316 0.00141777 0)
(0.0174121 0.00136971 0)
(0.0166273 0.00123816 0)
(0.0159818 0.0010702 0)
(0.0154583 0.000893557 0)
(0.0150283 0.000726894 0)
(0.0146761 0.000579724 0)
(0.014391 0.00045509 0)
(0.0141628 0.000352586 0)
(0.0139814 0.00027016 0)
(0.0138379 0.000205048 0)
(0.0137248 0.00015433 0)
(0.0136361 0.000115265 0)
(0.0135668 8.54547e-05 0)
(0.0135128 6.28899e-05 0)
(0.0134709 4.59334e-05 0)
(0.0134384 3.32763e-05 0)
(0.0134134 2.38877e-05 0)
(0.0133942 1.69664e-05 0)
(0.0133794 1.18954e-05 0)
(0.0133681 8.20378e-06 0)
(0.0133595 5.53506e-06 0)
(0.013353 3.62096e-06 0)
(0.0133481 2.26093e-06 0)
(0.0133444 1.30594e-06 0)
(0.0133417 6.4579e-07 0)
(0.0133396 1.99356e-07 0)
(0.0133382 -9.29077e-08 0)
(0.0133371 -2.74627e-07 0)
(0.0133363 -3.77738e-07 0)
(0.0133358 -4.25611e-07 0)
(0.0133355 -4.35313e-07 0)
(0.0133352 -4.19235e-07 0)
(0.0133351 -3.86139e-07 0)
(0.013335 -3.41979e-07 0)
(0.013335 -2.90127e-07 0)
(0.013335 -2.32476e-07 0)
(0.013335 -1.71152e-07 0)
(0.0201135 0.000651381 0)
(0.020894 0.00123746 0)
(0.0218079 0.00139043 0)
(0.0226522 0.00136413 0)
(0.0233815 0.00126669 0)
(0.0240064 0.00113688 0)
(0.0245353 0.00099537 0)
(0.0249729 0.000855968 0)
(0.025328 0.000726315 0)
(0.0256131 0.000609774 0)
(0.0258409 0.000507395 0)
(0.0260219 0.000419008 0)
(0.0261651 0.000343747 0)
(0.0262778 0.000280369 0)
(0.0263661 0.000227482 0)
(0.0264351 0.000183689 0)
(0.0264887 0.000147672 0)
(0.0265303 0.000118229 0)
(0.0265625 9.42909e-05 0)
(0.0265873 7.49254e-05 0)
(0.0266064 5.93293e-05 0)
(0.0266211 4.6821e-05 0)
(0.0266322 3.68268e-05 0)
(0.0266407 2.88689e-05 0)
(0.0266472 2.25521e-05 0)
(0.026652 1.75521e-05 0)
(0.0266557 1.36046e-05 0)
(0.0266584 1.04955e-05 0)
(0.0266604 8.05246e-06 0)
(0.0266619 6.13747e-06 0)
(0.0266629 4.64061e-06 0)
(0.0266637 3.47459e-06 0)
(0.0266642 2.57025e-06 0)
(0.0266645 1.8729e-06 0)
(0.0266648 1.33929e-06 0)
(0.0266649 9.35219e-07 0)
(0.026665 6.33751e-07 0)
(0.026665 4.13662e-07 0)
(0.026665 2.62594e-07 0)
(0.026665 1.51143e-07 0)
(0.0201135 -0.000651381 0)
(0.020894 -0.00123746 0)
(0.0218079 -0.00139043 0)
(0.0226522 -0.00136413 0)
(0.0233815 -0.00126669 0)
(0.0240064 -0.00113688 0)
(0.0245353 -0.000995369 0)
(0.0249729 -0.000855967 0)
(0.025328 -0.000726315 0)
(0.0256131 -0.000609774 0)
(0.0258409 -0.000507394 0)
(0.0260219 -0.000419008 0)
(0.0261651 -0.000343747 0)
(0.0262778 -0.000280369 0)
(0.0263661 -0.000227482 0)
(0.0264351 -0.000183689 0)
(0.0264887 -0.000147672 0)
(0.0265303 -0.000118229 0)
(0.0265625 -9.42913e-05 0)
(0.0265873 -7.49259e-05 0)
(0.0266064 -5.933e-05 0)
(0.0266211 -4.68216e-05 0)
(0.0266322 -3.68274e-05 0)
(0.0266407 -2.88693e-05 0)
(0.0266472 -2.25522e-05 0)
(0.026652 -1.75518e-05 0)
(0.0266557 -1.36038e-05 0)
(0.0266584 -1.04941e-05 0)
(0.0266604 -8.05052e-06 0)
(0.0266619 -6.13498e-06 0)
(0.0266629 -4.6376e-06 0)
(0.0266637 -3.47113e-06 0)
(0.0266642 -2.56647e-06 0)
(0.0266646 -1.869e-06 0)
(0.0266648 -1.33547e-06 0)
(0.0266649 -9.31661e-07 0)
(0.026665 -6.30592e-07 0)
(0.026665 -4.10853e-07 0)
(0.026665 -2.59837e-07 0)
(0.026665 -1.48837e-07 0)
(0.0189987 -0.000658025 0)
(0.0187799 -0.00126485 0)
(0.0182316 -0.00141777 0)
(0.0174121 -0.00136971 0)
(0.0166273 -0.00123816 0)
(0.0159818 -0.0010702 0)
(0.0154583 -0.000893557 0)
(0.0150283 -0.000726894 0)
(0.0146761 -0.000579724 0)
(0.014391 -0.00045509 0)
(0.0141628 -0.000352586 0)
(0.0139814 -0.00027016 0)
(0.0138379 -0.000205048 0)
(0.0137248 -0.00015433 0)
(0.0136361 -0.000115265 0)
(0.0135668 -8.54547e-05 0)
(0.0135128 -6.28899e-05 0)
(0.0134709 -4.59334e-05 0)
(0.0134384 -3.32762e-05 0)
(0.0134134 -2.38875e-05 0)
(0.0133942 -1.69661e-05 0)
(0.0133794 -1.18949e-05 0)
(0.0133681 -8.20324e-06 0)
(0.0133595 -5.53443e-06 0)
(0.013353 -3.62025e-06 0)
(0.0133481 -2.26017e-06 0)
(0.0133444 -1.30517e-06 0)
(0.0133417 -6.45052e-07 0)
(0.0133396 -1.98668e-07 0)
(0.0133382 9.35341e-08 0)
(0.0133371 2.75188e-07 0)
(0.0133363 3.78227e-07 0)
(0.0133358 4.26011e-07 0)
(0.0133355 4.35596e-07 0)
(0.0133352 4.19371e-07 0)
(0.0133351 3.86141e-07 0)
(0.013335 3.4193e-07 0)
(0.013335 2.901e-07 0)
(0.013335 2.32425e-07 0)
(0.013335 1.71126e-07 0)
)
;

boundaryField
{
    inlet
    {
        type            fixedValue;
        value           uniform (0.02 0 0);
    }
    outlet
    {
        type            zeroGradient;
    }
    walls
    {
        type            noSlip;
    }
    frontAndBack
    {
        type            empty;
    }
}


// ************************************************************************* //
