/*--------------------------------*- C++ -*----------------------------------*\
| =========                 |                                                 |
| \\      /  F ield         | OpenFOAM: The Open Source CFD Toolbox           |
|  \\    /   O peration     | Version:  2406                                  |
|   \\  /    A nd           | Website:  www.openfoam.com                      |
|    \\/     M anipulation  |                                                 |
\*---------------------------------------------------------------------------*/
FoamFile
{
    version     2.0;
    format      ascii;
    arch        "LSB;label=32;scalar=64";
    class       surfaceScalarField;
    location    "0.0002";
    object      phi;
}
// * * * * * * * * * * * * * * * * * * * * * * * * * * * * * * * * * * * * * //

dimensions      [0 3 -1 0 0 0 0];

oriented        oriented;

internalField   nonuniform List<scalar> 
9850
(
1.69293e-14
1.73884e-14
1.49834e-14
1.94419e-15
2.91812e-14
-1.41918e-14
5.14775e-14
-2.22998e-14
7.75965e-14
-2.61185e-14
1.04522e-13
-2.69261e-14
1.31404e-13
-2.6882e-14
1.57596e-13
-2.61916e-14
1.82904e-13
-2.53065e-14
2.07282e-13
-2.43771e-14
2.30554e-13
-2.32712e-14
2.52098e-13
-2.15453e-14
2.718e-13
-1.97004e-14
2.89438e-13
-1.76382e-14
3.04026e-13
-1.45917e-14
3.15006e-13
-1.09778e-14
3.22754e-13
-7.74747e-15
3.27383e-13
-4.63013e-15
3.28597e-13
-1.2127e-15
3.26831e-13
1.76613e-15
3.23171e-13
3.6606e-15
3.1819e-13
4.98182e-15
3.11831e-13
6.35826e-15
3.04187e-13
7.6434e-15
2.9557e-13
8.61726e-15
2.8591e-13
9.66038e-15
2.74723e-13
1.11884e-14
2.61767e-13
1.29565e-14
2.47369e-13
1.43989e-14
2.31977e-13
1.5392e-14
2.15695e-13
1.62842e-14
1.98429e-13
1.72679e-14
1.80353e-13
1.80772e-14
1.61956e-13
1.83966e-14
1.43609e-13
1.83475e-14
1.25237e-13
1.83702e-14
1.06585e-13
1.86493e-14
8.7793e-14
1.87889e-14
6.9664e-14
1.81277e-14
5.33032e-14
1.63598e-14
3.94737e-14
1.38282e-14
2.82409e-14
1.12318e-14
1.91706e-14
9.07039e-15
1.18277e-14
7.34334e-15
6.11638e-15
5.71097e-15
2.23244e-15
3.88285e-15
3.73172e-16
1.85843e-15
5.14625e-16
-1.42092e-16
2.43151e-15
-1.91856e-15
5.88335e-15
-3.4553e-15
1.07634e-14
-4.88427e-15
1.70809e-14
-6.32094e-15
2.48216e-14
-7.74268e-15
3.38334e-14
-9.01306e-15
4.38425e-14
-1.00103e-14
5.45725e-14
-1.07304e-14
6.58497e-14
-1.12755e-14
7.76062e-14
-1.1753e-14
8.98013e-14
-1.2191e-14
1.02321e-13
-1.25168e-14
1.15006e-13
-1.26836e-14
1.27688e-13
-1.26804e-14
1.40248e-13
-1.25591e-14
1.5262e-13
-1.23705e-14
1.64737e-13
-1.21158e-14
1.76497e-13
-1.17589e-14
1.87778e-13
-1.12813e-14
1.98492e-13
-1.07142e-14
2.08595e-13
-1.01019e-14
2.18025e-13
-9.42959e-15
2.26621e-13
-8.59589e-15
2.34102e-13
-7.48186e-15
2.40157e-13
-6.05592e-15
2.44541e-13
-4.38473e-15
2.47024e-13
-2.48333e-15
2.4714e-13
-1.15553e-16
2.43908e-13
3.23198e-15
2.35813e-13
8.0969e-15
2.21121e-13
1.46936e-14
1.98308e-13
2.2816e-14
1.66186e-13
3.21241e-14
1.23655e-13
4.25327e-14
6.92682e-14
5.43881e-14
1.25041e-15
6.80185e-14
-8.23514e-14
8.36019e-14
-1.8355e-13
1.01198e-13
-3.04536e-13
1.20986e-13
-4.47743e-13
1.43207e-13
-6.15579e-13
1.67835e-13
-8.10097e-13
1.94519e-13
-1.03308e-12
2.22986e-13
-1.28644e-12
2.53358e-13
-1.57233e-12
2.85892e-13
-1.89334e-12
3.21013e-13
-2.25297e-12
3.59631e-13
-2.65576e-12
4.02789e-13
-3.11329e-12
4.5753e-13
-3.6363e-12
5.23001e-13
-4.2221e-12
5.85804e-13
6.82836e-13
5.7057e-14
-5.34613e-15
1.01151e-13
-4.21507e-14
1.45568e-13
-5.86095e-14
1.83681e-13
-6.0412e-14
2.15991e-13
-5.84296e-14
2.43111e-13
-5.40479e-14
2.65753e-13
-4.95222e-14
2.85129e-13
-4.55682e-14
3.01806e-13
-4.19816e-14
3.16154e-13
-3.87248e-14
3.28699e-13
-3.58147e-14
3.40037e-13
-3.28843e-14
3.49674e-13
-2.93379e-14
3.57142e-13
-2.51052e-14
3.63028e-13
-2.04819e-14
3.67417e-13
-1.53676e-14
3.69476e-13
-9.8071e-15
3.69154e-13
-4.31093e-15
3.67272e-13
6.6886e-16
3.64094e-13
4.94537e-15
3.59318e-13
8.43557e-15
3.53097e-13
1.12016e-14
3.46014e-13
1.34419e-14
3.38283e-13
1.53756e-14
3.29653e-13
1.72464e-14
3.19976e-13
1.93357e-14
3.09385e-13
2.17797e-14
2.97934e-13
2.44095e-14
2.85428e-13
2.69062e-14
2.71721e-13
2.91e-14
2.56983e-13
3.10225e-14
2.41561e-13
3.26903e-14
2.25661e-13
3.39775e-14
2.09294e-13
3.47652e-14
1.9251e-13
3.51342e-14
1.75597e-13
3.52858e-14
1.5901e-13
3.52385e-14
1.4314e-13
3.46619e-14
1.28196e-13
3.30757e-14
1.14314e-13
3.02458e-14
1.01744e-13
2.64016e-14
9.08902e-14
2.20883e-14
8.21499e-14
1.7813e-14
7.5698e-14
1.3797e-14
7.14163e-14
9.99481e-15
6.90167e-14
6.28585e-15
6.82502e-14
2.6298e-15
6.90404e-14
-9.26926e-16
7.14657e-14
-4.33849e-15
7.5629e-14
-7.61233e-15
8.15195e-14
-1.07671e-14
8.89586e-14
-1.37519e-14
9.76491e-14
-1.64271e-14
1.07282e-13
-1.86435e-14
1.17625e-13
-2.03543e-14
1.28546e-13
-2.16551e-14
1.39972e-13
-2.27072e-14
1.5182e-13
-2.36073e-14
1.63935e-13
-2.4313e-14
1.761e-13
-2.46864e-14
1.88036e-13
-2.46227e-14
1.99495e-13
-2.41394e-14
2.10303e-13
-2.33651e-14
2.20369e-13
-2.24355e-14
2.29642e-13
-2.13892e-14
2.38033e-13
-2.01506e-14
2.45359e-13
-1.86072e-14
2.51345e-13
-1.67002e-14
2.55689e-13
-1.44451e-14
2.58131e-13
-1.1871e-14
2.58487e-13
-8.95224e-15
2.56619e-13
-5.6131e-15
2.52356e-13
-1.78973e-15
2.45411e-13
2.56348e-15
2.35324e-13
7.60459e-15
2.21422e-13
1.37866e-14
2.02782e-13
2.1871e-14
1.78231e-13
3.26472e-14
1.46386e-13
4.65354e-14
1.05752e-13
6.34471e-14
5.47972e-14
8.30782e-14
-8.02414e-15
1.05354e-13
-8.4194e-14
1.30559e-13
-1.75201e-13
1.59027e-13
-2.82517e-13
1.9092e-13
-4.07683e-13
2.26365e-13
-5.52342e-13
2.65644e-13
-7.18095e-13
3.08958e-13
-9.06326e-13
3.56063e-13
-1.11828e-12
4.06468e-13
-1.35521e-12
4.59921e-13
-1.61838e-12
5.16523e-13
-1.90921e-12
5.76721e-13
-2.23e-12
6.41802e-13
-2.58551e-12
7.15149e-13
-2.9848e-12
8.02084e-13
-3.44421e-12
9.16942e-13
-4.01835e-12
1.09714e-12
-4.73335e-12
1.3008e-12
1.41082e-12
8.39972e-14
-5.50272e-14
1.67475e-13
-1.25627e-13
2.33573e-13
-1.24706e-13
2.78637e-13
-1.05476e-13
3.07093e-13
-8.6887e-14
3.23748e-13
-7.0701e-14
3.31491e-13
-5.72661e-14
3.33072e-13
-4.71494e-14
3.30252e-13
-3.9159e-14
3.249e-13
-3.33752e-14
3.17687e-13
-2.8602e-14
3.09027e-13
-2.42232e-14
3.00099e-13
-2.04099e-14
2.91504e-13
-1.65114e-14
2.829e-13
-1.18792e-14
2.74438e-13
-6.90591e-15
2.66733e-13
-2.1013e-15
2.59808e-13
2.61524e-15
2.53225e-13
7.25184e-15
2.46838e-13
1.13312e-14
2.40771e-13
1.45034e-14
2.34991e-13
1.6982e-14
2.29287e-13
1.91438e-14
2.23535e-13
2.1127e-14
2.17776e-13
2.30073e-14
2.12087e-13
2.50246e-14
2.06479e-13
2.73872e-14
2.00896e-13
2.9994e-14
1.95266e-13
3.25371e-14
1.89542e-13
3.48252e-14
1.83694e-13
3.68725e-14
1.77692e-13
3.86931e-14
1.71519e-13
4.015e-14
1.65213e-13
4.1069e-14
1.58916e-13
4.14288e-14
1.52854e-13
4.13456e-14
1.47237e-13
4.08532e-14
1.42153e-13
3.97441e-14
1.37558e-13
3.76712e-14
1.33375e-13
3.44294e-14
1.29623e-13
3.01531e-14
1.26454e-13
2.52567e-14
1.24074e-13
2.01924e-14
1.22633e-13
1.52373e-14
1.22171e-13
1.04558e-14
1.22648e-13
5.80534e-15
1.24018e-13
1.25548e-15
1.2626e-13
-3.17359e-15
1.29355e-13
-7.43864e-15
1.3324e-13
-1.15008e-14
1.37784e-13
-1.53138e-14
1.42826e-13
-1.87959e-14
1.48233e-13
-2.18337e-14
1.53926e-13
-2.43337e-14
1.59857e-13
-2.62817e-14
1.65958e-13
-2.77514e-14
1.721e-13
-2.88433e-14
1.78096e-13
-2.9599e-14
1.83749e-13
-2.99635e-14
1.889e-13
-2.98357e-14
1.93437e-13
-2.91593e-14
1.9728e-13
-2.7981e-14
2.00336e-13
-2.64194e-14
2.02474e-13
-2.45712e-14
2.03521e-13
-2.2436e-14
2.03297e-13
-1.99266e-14
2.01643e-13
-1.69542e-14
1.98448e-13
-1.35056e-14
1.93635e-13
-9.63316e-15
1.87121e-13
-5.36013e-15
1.78758e-13
-5.9268e-16
1.68273e-13
4.86861e-15
1.55249e-13
1.12324e-14
1.39152e-13
1.86601e-14
1.19405e-13
2.73509e-14
9.54895e-14
3.7702e-14
6.70185e-14
5.03432e-14
3.37363e-14
6.59312e-14
-4.5838e-15
8.48564e-14
-4.83039e-14
1.07166e-13
-9.80322e-14
1.32805e-13
-1.54577e-13
1.61898e-13
-2.1875e-13
1.94731e-13
-2.91228e-13
2.31503e-13
-3.72552e-13
2.72245e-13
-4.63205e-13
3.17017e-13
-5.63535e-13
3.65973e-13
-6.73614e-13
4.19036e-13
-7.93309e-13
4.7576e-13
-9.22609e-13
5.35769e-13
-1.0616e-12
5.98912e-13
-1.21028e-12
6.65198e-13
-1.36942e-12
7.35861e-13
-1.54085e-12
8.13236e-13
-1.72804e-12
9.02337e-13
-1.93929e-12
1.01333e-12
-2.18691e-12
1.16456e-12
-2.49359e-12
1.40382e-12
-2.87834e-12
1.68555e-12
1.81816e-12
9.94777e-14
-1.20184e-13
2.06338e-13
-2.32487e-13
2.86037e-13
-2.04405e-13
3.34943e-13
-1.54381e-13
3.60782e-13
-1.12725e-13
3.7063e-13
-8.05485e-14
3.69098e-13
-5.57304e-14
3.59646e-13
-3.76985e-14
3.4502e-13
-2.45339e-14
3.26737e-13
-1.50906e-14
3.06722e-13
-8.58786e-15
2.8644e-13
-3.94351e-15
2.66143e-13
-1.11268e-16
2.46373e-13
3.25518e-15
2.28246e-13
6.24479e-15
2.12143e-13
9.19869e-15
1.97744e-13
1.22974e-14
1.85035e-13
1.53231e-14
1.74266e-13
1.80222e-14
1.65281e-13
2.03144e-14
1.57582e-13
2.22002e-14
1.5086e-13
2.37038e-14
1.45095e-13
2.49077e-14
1.40244e-13
2.59763e-14
1.36129e-13
2.71206e-14
1.32652e-13
2.85013e-14
1.29904e-13
3.01362e-14
1.27976e-13
3.19221e-14
1.26762e-13
3.37505e-14
1.26019e-13
3.55683e-14
1.25584e-13
3.7311e-14
1.25452e-13
3.88273e-14
1.25679e-13
3.99249e-14
1.26247e-13
4.05021e-14
1.27078e-13
4.06002e-14
1.28133e-13
4.02929e-14
1.29465e-13
3.95227e-14
1.31144e-13
3.80666e-14
1.33142e-13
3.56754e-14
1.35303e-13
3.22699e-14
1.37438e-13
2.80185e-14
1.39451e-13
2.32438e-14
1.41392e-13
1.82529e-14
1.43402e-13
1.32294e-14
1.45618e-13
8.241e-15
1.48109e-13
3.31549e-15
1.50866e-13
-1.49942e-15
1.53827e-13
-6.13298e-15
1.56912e-13
-1.05202e-14
1.60029e-13
-1.46165e-14
1.63096e-13
-1.83799e-14
1.66047e-13
-2.17462e-14
1.68844e-13
-2.46319e-14
1.71477e-13
-2.6969e-14
1.73935e-13
-2.87416e-14
1.76165e-13
-2.99838e-14
1.78058e-13
-3.07361e-14
1.79458e-13
-3.09982e-14
1.80218e-13
-3.07219e-14
1.80239e-13
-2.98554e-14
1.79479e-13
-2.83981e-14
1.77912e-13
-2.64137e-14
1.75476e-13
-2.39831e-14
1.72041e-13
-2.11358e-14
1.67426e-13
-1.78221e-14
1.61456e-13
-1.39576e-14
1.54005e-13
-9.50388e-15
1.45002e-13
-4.50446e-15
1.34396e-13
9.7163e-16
1.22097e-13
6.9372e-15
1.07962e-13
1.35413e-14
9.18181e-14
2.10113e-14
7.34986e-14
2.95495e-14
5.28335e-14
3.93227e-14
2.95909e-14
5.05911e-14
3.45463e-15
6.38359e-14
-2.58919e-14
7.96869e-14
-5.86154e-14
9.86523e-14
-9.46744e-14
1.20914e-13
-1.33946e-13
1.46438e-13
-1.76412e-13
1.75271e-13
-2.22188e-13
2.07674e-13
-2.71335e-13
2.43878e-13
-3.23731e-13
2.839e-13
-3.79143e-13
3.27657e-13
-4.37322e-13
3.75196e-13
-4.97905e-13
4.26555e-13
-5.60341e-13
4.81473e-13
-6.24073e-13
5.39494e-13
-6.88708e-13
6.00406e-13
-7.53959e-13
6.64164e-13
-8.19843e-13
7.31084e-13
-8.87013e-13
8.03034e-13
-9.56819e-13
8.83044e-13
-1.032e-12
9.77513e-13
-1.11626e-12
1.0976e-12
-1.21354e-12
1.26184e-12
-1.32248e-12
1.51275e-12
-1.43893e-12
1.802e-12
1.93962e-12
1.0751e-13
-1.93374e-13
2.26056e-13
-3.51031e-13
3.12707e-13
-2.91053e-13
3.62748e-13
-2.0442e-13
3.87131e-13
-1.37107e-13
3.93045e-13
-8.64632e-14
3.86227e-13
-4.8913e-14
3.70442e-13
-2.19128e-14
3.49094e-13
-3.18742e-15
3.24537e-13
9.46699e-15
2.9811e-13
1.78396e-14
2.71025e-13
2.31392e-14
2.44647e-13
2.62668e-14
2.19739e-13
2.81646e-14
1.96547e-13
2.94332e-14
1.75451e-13
3.02945e-14
1.56903e-13
3.08478e-14
1.4099e-13
3.1236e-14
1.27461e-13
3.15492e-14
1.16081e-13
3.16936e-14
1.06718e-13
3.15649e-14
9.9155e-14
3.12652e-14
9.30666e-14
3.09932e-14
8.82122e-14
3.08314e-14
8.45585e-14
3.07758e-14
8.21707e-14
3.08874e-14
8.102e-14
3.1284e-14
8.09396e-14
3.20009e-14
8.17521e-14
3.29381e-14
8.33832e-14
3.39382e-14
8.58296e-14
3.48657e-14
8.90419e-14
3.56152e-14
9.28686e-14
3.60979e-14
9.71179e-14
3.62536e-14
1.01667e-13
3.60529e-14
1.06506e-13
3.5455e-14
1.11671e-13
3.43574e-14
1.17133e-13
3.26066e-14
1.22726e-13
3.0084e-14
1.28205e-13
2.67912e-14
1.33357e-13
2.28654e-14
1.38086e-13
1.85137e-14
1.42415e-13
1.39237e-14
1.46422e-13
9.22088e-15
1.50174e-13
4.48639e-15
1.5369e-13
-2.03745e-16
1.5695e-13
-4.76228e-15
1.59921e-13
-9.10493e-15
1.62569e-13
-1.31684e-14
1.64861e-13
-1.69073e-14
1.66755e-13
-2.02724e-14
1.6821e-13
-2.31983e-14
1.69196e-13
-2.5614e-14
1.69702e-13
-2.74715e-14
1.69724e-13
-2.87608e-14
1.69237e-13
-2.94949e-14
1.68177e-13
-2.96754e-14
1.66452e-13
-2.92729e-14
1.63973e-13
-2.82429e-14
1.60685e-13
-2.6567e-14
1.56568e-13
-2.42802e-14
1.51608e-13
-2.14529e-14
1.45759e-13
-1.81343e-14
1.3893e-13
-1.43077e-14
1.31009e-13
-9.90232e-15
1.21911e-13
-4.86023e-15
1.11603e-13
8.0396e-16
1.00075e-13
7.02206e-15
8.7271e-14
1.37729e-14
7.30318e-14
2.1174e-14
5.71127e-14
2.94595e-14
3.92807e-14
3.88438e-14
1.94154e-14
4.94155e-14
-2.4707e-15
6.12094e-14
-2.63009e-14
7.44226e-14
-5.20037e-14
8.954e-14
-7.9497e-14
1.0718e-13
-1.08618e-13
1.27771e-13
-1.39122e-13
1.51416e-13
-1.7078e-13
1.78095e-13
-2.03455e-13
2.07945e-13
-2.36988e-13
2.41207e-13
-2.7105e-13
2.77942e-13
-3.0514e-13
3.17991e-13
-3.38748e-13
3.61266e-13
-3.7136e-13
4.07808e-13
-4.02269e-13
4.57466e-13
-4.30686e-13
5.09892e-13
-4.56067e-13
5.64874e-13
-4.77942e-13
6.2228e-13
-4.96125e-13
6.82345e-13
-5.10935e-13
7.45892e-13
-5.22765e-13
8.14864e-13
-5.32318e-13
8.92594e-13
-5.40898e-13
9.8609e-13
-5.48191e-13
1.10489e-12
-5.51678e-13
1.26533e-12
-5.3825e-13
1.49932e-12
-4.98352e-13
1.7621e-12
1.88768e-12
1.09416e-13
-2.68468e-13
2.30845e-13
-4.72457e-13
3.1854e-13
-3.78747e-13
3.67986e-13
-2.53866e-13
3.90379e-13
-1.595e-13
3.93857e-13
-8.99396e-14
3.84261e-13
-3.93186e-14
3.65911e-13
-3.56148e-15
3.41716e-13
2.10086e-14
3.1402e-13
3.71596e-14
2.84869e-13
4.69904e-14
2.55571e-13
5.2439e-14
2.26929e-13
5.49074e-14
1.99697e-13
5.53951e-14
1.74512e-13
5.46188e-14
1.51705e-13
5.31029e-14
1.31393e-13
5.11585e-14
1.13659e-13
4.89694e-14
9.85488e-14
4.66598e-14
8.59635e-14
4.42776e-14
7.56389e-14
4.18878e-14
6.72706e-14
3.96319e-14
6.06665e-14
3.75967e-14
5.57482e-14
3.57497e-14
5.24292e-14
3.40939e-14
5.05476e-14
3.2768e-14
4.99289e-14
3.19033e-14
5.04794e-14
3.14509e-14
5.21906e-14
3.12261e-14
5.50475e-14
3.1081e-14
5.89412e-14
3.09744e-14
6.36711e-14
3.08885e-14
6.90297e-14
3.07411e-14
7.4883e-14
3.04013e-14
8.11781e-14
2.97593e-14
8.78825e-14
2.87524e-14
9.49118e-14
2.73294e-14
1.021e-13
2.54195e-14
1.09228e-13
2.29561e-14
1.16089e-13
1.99307e-14
1.22536e-13
1.64191e-14
1.28497e-13
1.25542e-14
1.33949e-13
8.47402e-15
1.38881e-13
4.28927e-15
1.43281e-13
8.63324e-17
1.47133e-13
-4.05538e-15
1.50427e-13
-8.05604e-15
1.53163e-13
-1.18407e-14
1.55338e-13
-1.53439e-14
1.56934e-13
-1.85045e-14
1.57918e-13
-2.12582e-14
1.58259e-13
-2.35396e-14
1.57942e-13
-2.5296e-14
1.56973e-13
-2.65002e-14
1.55361e-13
-2.71474e-14
1.53099e-13
-2.72325e-14
1.50154e-13
-2.67286e-14
1.46471e-13
-2.55896e-14
1.42009e-13
-2.37802e-14
1.36752e-13
-2.13104e-14
1.3071e-13
-1.82382e-14
1.23884e-13
-1.4628e-14
1.16242e-13
-1.04922e-14
1.07706e-13
-5.77149e-15
9.81866e-14
-3.82616e-16
8.76279e-14
5.699e-15
7.60292e-14
1.24031e-14
6.34194e-14
1.96317e-14
4.98026e-14
2.73888e-14
3.51234e-14
3.58522e-14
1.92868e-14
4.52956e-14
2.20836e-15
5.59225e-14
-1.61623e-14
6.77867e-14
-3.58618e-14
8.09092e-14
-5.69202e-14
9.54811e-14
-7.92905e-14
1.11911e-13
-1.02737e-13
1.30627e-13
-1.26815e-13
1.51849e-13
-1.51014e-13
1.75615e-13
-1.7494e-13
2.0202e-13
-1.98306e-13
2.3131e-13
-2.20752e-13
2.63651e-13
-2.41735e-13
2.98924e-13
-2.60659e-13
3.36915e-13
-2.77013e-13
3.77619e-13
-2.90269e-13
4.21065e-13
-2.99738e-13
4.66938e-13
-3.04757e-13
5.1491e-13
-3.04981e-13
5.65098e-13
-2.99963e-13
6.17263e-13
-2.89593e-13
6.71976e-13
-2.74232e-13
7.30531e-13
-2.53452e-13
7.9408e-13
-2.28365e-13
8.67508e-13
-1.9746e-13
9.55186e-13
-1.58656e-13
1.06609e-12
-1.0526e-13
1.21193e-12
-2.10463e-14
1.41511e-12
1.04479e-13
1.63658e-12
1.7427e-12
1.06269e-13
-3.40416e-13
2.22552e-13
-5.88741e-13
3.05874e-13
-4.62067e-13
3.52409e-13
-3.004e-13
3.72874e-13
-1.79965e-13
3.74965e-13
-9.20302e-14
3.64412e-13
-2.87643e-14
3.4539e-13
1.54584e-14
3.20978e-13
4.54218e-14
2.9348e-13
6.46597e-14
2.64416e-13
7.60531e-14
2.35087e-13
8.17663e-14
2.0655e-13
8.34493e-14
1.7954e-13
8.24046e-14
1.54533e-13
7.96226e-14
1.31834e-13
7.58029e-14
1.11633e-13
7.13625e-14
9.39863e-14
6.66176e-14
7.88047e-14
6.18391e-14
6.59425e-14
5.7138e-14
5.52819e-14
5.25502e-14
4.67247e-14
4.819e-14
4.01375e-14
4.41821e-14
3.53261e-14
4.05592e-14
3.20819e-14
3.73367e-14
3.02597e-14
3.45892e-14
2.98005e-14
3.2362e-14
3.06805e-14
3.05703e-14
3.28408e-14
2.90656e-14
3.61525e-14
2.77712e-14
4.04364e-14
2.66927e-14
4.55229e-14
2.58024e-14
5.12946e-14
2.49688e-14
5.76772e-14
2.40198e-14
6.459e-14
2.28491e-14
7.19063e-14
2.14373e-14
7.94532e-14
1.97816e-14
8.70379e-14
1.78338e-14
9.44833e-14
1.5511e-14
1.01645e-13
1.27694e-14
1.08414e-13
9.65076e-15
1.147e-13
6.26753e-15
1.20427e-13
2.74661e-15
1.25531e-13
-8.14034e-16
1.29968e-13
-4.35041e-15
1.33724e-13
-7.811e-15
1.36805e-13
-1.11359e-14
1.39216e-13
-1.4251e-14
1.40947e-13
-1.70744e-14
1.4197e-13
-1.9526e-14
1.4225e-13
-2.15369e-14
1.4177e-13
-2.30578e-14
1.40539e-13
-2.40631e-14
1.38584e-13
-2.45455e-14
1.35934e-13
-2.44979e-14
1.32594e-13
-2.38935e-14
1.28547e-13
-2.26812e-14
1.23766e-13
-2.08071e-14
1.18239e-13
-1.82527e-14
1.11984e-13
-1.50558e-14
1.05034e-13
-1.12904e-14
9.7414e-14
-7.00885e-15
8.91122e-14
-2.1905e-15
8.00892e-14
3.25267e-15
7.0303e-14
9.40476e-15
5.97357e-14
1.62663e-14
4.83876e-14
2.37499e-14
3.62408e-14
3.17773e-14
2.32331e-14
4.03969e-14
9.28964e-15
4.97976e-14
-5.59778e-15
6.0185e-14
-2.1318e-14
7.16445e-14
-3.76894e-14
8.416e-14
-5.45791e-14
9.78006e-14
-7.19594e-14
1.12862e-13
-8.9807e-14
1.29758e-13
-1.07927e-13
1.48747e-13
-1.25904e-13
1.69826e-13
-1.43241e-13
1.92952e-13
-1.59518e-13
2.18297e-13
-1.74345e-13
2.46137e-13
-1.87215e-13
2.76521e-13
-1.97523e-13
3.09231e-13
-2.04727e-13
3.44119e-13
-2.08343e-13
3.81237e-13
-2.07803e-13
4.20525e-13
-2.02545e-13
4.61679e-13
-1.92122e-13
5.04487e-13
-1.76156e-13
5.49132e-13
-1.54664e-13
5.95769e-13
-1.27318e-13
6.44629e-13
-9.44564e-14
6.9767e-13
-5.58738e-14
7.55494e-13
-1.10229e-14
8.22657e-13
4.2005e-14
9.02162e-13
1.06529e-13
1.00156e-12
1.90881e-13
1.12758e-12
3.10478e-13
1.29552e-12
4.74052e-13
1.473e-12
1.55786e-12
9.85401e-14
-4.04634e-13
2.0273e-13
-6.92928e-13
2.77661e-13
-5.36999e-13
3.19053e-13
-3.4179e-13
3.36789e-13
-1.97701e-13
3.37859e-13
-9.31032e-14
3.27461e-13
-1.83642e-14
3.09454e-13
3.34675e-14
2.86567e-13
6.8307e-14
2.60975e-13
9.02508e-14
2.34155e-13
1.02877e-13
2.07186e-13
1.08734e-13
1.80889e-13
1.09745e-13
1.55881e-13
1.07412e-13
1.32647e-13
1.02858e-13
1.11529e-13
9.69214e-14
9.26985e-14
9.01905e-14
7.61787e-14
8.31365e-14
6.19197e-14
7.60996e-14
4.98647e-14
6.91932e-14
3.99311e-14
6.24819e-14
3.19665e-14
5.6153e-14
2.57775e-14
5.03731e-14
2.11995e-14
4.51409e-14
1.81319e-14
4.0404e-14
1.65201e-14
3.61973e-14
1.63064e-14
3.25737e-14
1.73937e-14
2.94843e-14
1.96465e-14
2.68144e-14
2.29213e-14
2.44969e-14
2.70962e-14
2.25178e-14
3.20791e-14
2.08195e-14
3.77887e-14
1.92596e-14
4.41229e-14
1.76862e-14
5.09415e-14
1.60303e-14
5.8077e-14
1.43002e-14
6.53608e-14
1.24963e-14
7.26457e-14
1.05493e-14
7.98026e-14
8.35592e-15
8.67127e-14
5.86013e-15
9.32595e-14
3.10364e-15
9.93275e-14
1.99482e-16
1.04813e-13
-2.73713e-15
1.09638e-13
-5.63689e-15
1.13761e-13
-8.47299e-15
1.17174e-13
-1.12242e-14
1.19879e-13
-1.38423e-14
1.21874e-13
-1.62466e-14
1.23141e-13
-1.83405e-14
1.23652e-13
-2.00362e-14
1.23389e-13
-2.12721e-14
1.22352e-13
-2.202e-14
1.20567e-13
-2.22773e-14
1.1807e-13
-2.2048e-14
1.14889e-13
-2.13179e-14
1.11037e-13
-2.00412e-14
1.06507e-13
-1.81513e-14
1.01296e-13
-1.55965e-14
9.54197e-14
-1.23769e-14
8.89143e-14
-8.55114e-15
8.18193e-14
-4.19617e-15
7.41526e-14
6.57485e-16
6.59013e-14
6.06143e-15
5.70408e-14
1.21144e-14
4.75726e-14
1.88738e-14
3.75441e-14
2.62943e-14
2.7024e-14
3.42681e-14
1.60462e-14
4.27531e-14
4.57448e-15
5.18681e-14
-7.46623e-15
6.18393e-14
-2.01064e-14
7.28262e-14
-3.32704e-14
8.48085e-14
-4.67966e-14
9.7686e-14
-6.05089e-14
1.11513e-13
-7.42465e-14
1.266e-13
-8.78079e-14
1.43318e-13
-1.00884e-13
1.61822e-13
-1.13093e-13
1.82034e-13
-1.24074e-13
2.03934e-13
-1.33503e-13
2.27723e-13
-1.40964e-13
2.53596e-13
-1.45896e-13
2.81453e-13
-1.47741e-13
3.11075e-13
-1.46089e-13
3.42466e-13
-1.40534e-13
3.75684e-13
-1.30499e-13
4.1049e-13
-1.15554e-13
4.46733e-13
-9.55985e-14
4.84531e-13
-7.00804e-14
5.23614e-13
-3.91283e-14
5.6482e-13
-2.88486e-15
6.08385e-13
3.95516e-14
6.55231e-13
8.74749e-14
7.07572e-13
1.42805e-13
7.67328e-13
2.06868e-13
8.381e-13
2.84415e-13
9.24016e-13
3.81886e-13
1.03011e-12
5.12478e-13
1.16492e-12
6.82926e-13
1.30255e-12
1.3678e-12
8.73571e-14
-4.57671e-13
1.73896e-13
-7.79466e-13
2.359e-13
-5.99002e-13
2.70264e-13
-3.76157e-13
2.84599e-13
-2.12034e-13
2.84889e-13
-9.33924e-14
2.75459e-13
-8.93561e-15
2.5953e-13
4.93964e-14
2.39502e-13
8.83385e-14
2.17052e-13
1.12702e-13
1.93579e-13
1.26347e-13
1.70143e-13
1.32171e-13
1.47493e-13
1.32399e-13
1.26094e-13
1.28812e-13
1.06194e-13
1.22754e-13
8.79637e-14
1.15151e-13
7.15803e-14
1.06576e-13
5.71897e-14
9.75284e-14
4.48341e-14
8.84515e-14
3.44426e-14
7.95814e-14
2.58707e-14
7.10545e-14
1.89654e-14
6.30596e-14
1.36158e-14
5.57224e-14
9.75113e-15
4.90041e-14
7.3089e-15
4.28446e-14
6.20806e-15
3.72982e-14
6.33942e-15
3.2444e-14
7.57891e-15
2.82448e-14
9.81613e-15
2.45748e-14
1.29693e-14
2.13423e-14
1.69711e-14
1.85169e-14
2.17425e-14
1.60491e-14
2.71757e-14
1.38252e-14
3.31361e-14
1.17235e-14
3.94765e-14
9.68774e-15
4.60563e-14
7.71886e-15
5.27526e-14
5.79946e-15
5.94533e-14
3.84859e-15
6.60458e-14
1.7626e-15
7.2409e-14
-5.04712e-16
7.84163e-14
-2.90471e-15
8.39491e-14
-5.332e-15
8.89107e-14
-7.6958e-15
9.32356e-14
-9.95984e-15
9.6889e-14
-1.21265e-14
9.98555e-14
-1.41916e-14
1.02125e-13
-1.61116e-14
1.03683e-13
-1.78027e-14
1.04511e-13
-1.91662e-14
1.04594e-13
-2.01184e-14
1.03933e-13
-2.06116e-14
1.02549e-13
-2.06361e-14
1.00475e-13
-2.02039e-14
9.77483e-14
-1.9321e-14
9.43932e-14
-1.7962e-14
9.04178e-14
-1.6065e-14
8.58238e-14
-1.35574e-14
8.06249e-14
-1.03986e-14
7.4859e-14
-6.61228e-15
6.85826e-14
-2.27569e-15
6.18484e-14
2.53774e-15
5.46811e-14
7.82484e-15
4.70725e-14
1.36697e-14
3.90036e-14
2.01819e-14
3.0478e-14
2.7397e-14
2.15357e-14
3.52335e-14
1.22342e-14
4.35669e-14
2.61708e-15
5.23681e-14
-7.28739e-15
6.17708e-14
-1.74303e-14
7.19804e-14
-2.77118e-14
8.31057e-14
-3.80046e-14
9.50991e-14
-4.82156e-14
1.07894e-13
-5.82967e-14
1.21592e-13
-6.81549e-14
1.36458e-13
-7.75358e-14
1.52699e-13
-8.60276e-14
1.70313e-13
-9.32132e-14
1.89219e-13
-9.87916e-14
2.09512e-13
-1.02501e-13
2.31431e-13
-1.03951e-13
2.55045e-13
-1.02631e-13
2.80133e-13
-9.80873e-14
3.06531e-13
-8.99926e-14
3.34371e-13
-7.80253e-14
3.63717e-13
-6.17792e-14
3.94244e-13
-4.08388e-14
4.25793e-13
-1.51079e-14
4.58802e-13
1.54523e-14
4.93056e-13
5.13848e-14
5.28889e-13
9.23828e-14
5.67388e-13
1.39047e-13
6.0857e-13
1.91231e-13
6.55389e-13
2.50905e-13
7.07657e-13
3.19302e-13
7.697e-13
4.00224e-13
8.43093e-13
4.99215e-13
9.31116e-13
6.2559e-13
1.03854e-12
7.83487e-13
1.14466e-12
1.19403e-12
7.38184e-14
-4.9717e-13
1.38087e-13
-8.43734e-13
1.84221e-13
-6.45134e-13
2.09242e-13
-4.01177e-13
2.19192e-13
-2.21987e-13
2.18371e-13
-9.25715e-14
2.10243e-13
-8.0393e-16
1.97044e-13
6.25956e-14
1.80743e-13
1.04637e-13
1.6266e-13
1.30785e-13
1.43865e-13
1.45143e-13
1.2512e-13
1.50917e-13
1.06924e-13
1.50593e-13
8.96869e-14
1.46046e-13
7.37405e-14
1.38701e-13
5.92952e-14
1.29596e-13
4.64588e-14
1.19411e-13
3.52461e-14
1.0874e-13
2.56039e-14
9.80921e-14
1.74682e-14
8.77174e-14
1.07859e-14
7.77387e-14
5.50901e-15
6.83359e-14
1.5894e-15
5.96405e-14
-1.03951e-15
5.16331e-14
-2.47396e-15
4.42793e-14
-2.82558e-15
3.76491e-14
-2.19668e-15
3.18138e-14
-6.63556e-16
2.67101e-14
1.72175e-15
2.21886e-14
4.90996e-15
1.81548e-14
8.83042e-15
1.45973e-14
1.33845e-14
1.14935e-14
1.84565e-14
8.74992e-15
2.3928e-14
6.24983e-15
2.96875e-14
3.92832e-15
3.56341e-14
1.77271e-15
4.16742e-14
-2.4107e-16
4.77085e-14
-2.18728e-15
5.36251e-14
-4.15576e-15
5.93027e-14
-6.18307e-15
6.46249e-14
-8.22593e-15
6.94936e-14
-1.01987e-14
7.38347e-14
-1.20358e-14
7.75965e-14
-1.37225e-14
8.07446e-14
-1.52765e-14
8.32559e-14
-1.67038e-14
8.51124e-14
-1.79668e-14
8.62967e-14
-1.89847e-14
8.6793e-14
-1.96609e-14
8.65939e-14
-1.99191e-14
8.57087e-14
-1.97268e-14
8.4166e-14
-1.90932e-14
8.20057e-14
-1.8043e-14
7.92649e-14
-1.65796e-14
7.59659e-14
-1.46629e-14
7.21175e-14
-1.2217e-14
6.77287e-14
-9.16904e-15
6.28253e-14
-5.49552e-15
5.74556e-14
-1.24293e-15
5.16789e-14
3.50056e-15
4.55438e-14
8.67227e-15
3.90753e-14
1.42928e-14
3.22845e-14
2.04599e-14
2.51954e-14
2.72695e-14
1.78633e-14
3.47261e-14
1.03584e-14
4.27347e-14
2.72273e-15
5.12e-14
-5.05405e-15
6.01438e-14
-1.29958e-14
6.97114e-14
-2.10561e-14
8.00386e-14
-2.90715e-14
9.11187e-14
-3.68153e-14
1.02842e-13
-4.41134e-14
1.15192e-13
-5.0894e-14
1.28372e-13
-5.7099e-14
1.42662e-13
-6.25473e-14
1.58148e-13
-6.69166e-14
1.74684e-13
-6.98647e-14
1.92167e-13
-7.11112e-14
2.10758e-13
-7.03612e-14
2.30682e-13
-6.72149e-14
2.51899e-13
-6.1261e-14
2.74178e-13
-5.22025e-14
2.97474e-13
-3.97347e-14
3.21905e-13
-2.34377e-14
3.4742e-13
-3.09042e-15
3.73895e-13
2.13691e-14
4.01333e-13
5.03976e-14
4.29774e-13
8.38647e-14
4.59591e-13
1.21882e-13
4.90873e-13
1.64664e-13
5.24606e-13
2.12309e-13
5.60926e-13
2.65805e-13
6.01893e-13
3.25428e-13
6.48034e-13
3.93343e-13
7.01786e-13
4.72037e-13
7.64395e-13
5.65351e-13
8.378e-13
6.79077e-13
9.24818e-13
8.14753e-13
1.00898e-12
1.04724e-12
5.81211e-14
-5.20969e-13
9.70397e-14
-8.82652e-13
1.24888e-13
-6.72984e-13
1.3943e-13
-4.1572e-13
1.44334e-13
-2.26888e-13
1.42086e-13
-9.03238e-14
1.34924e-13
6.35833e-15
1.24535e-13
7.29832e-14
1.12239e-13
1.16936e-13
9.90508e-14
1.43973e-13
8.55584e-14
1.58634e-13
7.21975e-14
1.64275e-13
5.9296e-14
1.63497e-13
4.71346e-14
1.58207e-13
3.59727e-14
1.49862e-13
2.59765e-14
1.3959e-13
1.71978e-14
1.28188e-13
9.61443e-15
1.16323e-13
3.1873e-15
1.0452e-13
-2.10108e-15
9.3005e-14
-6.25671e-15
8.18927e-14
-9.30279e-15
7.138e-14
-1.1293e-14
6.16308e-14
-1.23148e-14
5.26563e-14
-1.24688e-14
4.44322e-14
-1.18319e-14
3.70095e-14
-1.04468e-14
3.04272e-14
-8.34176e-15
2.46049e-14
-5.55537e-15
1.94022e-14
-2.14841e-15
1.47476e-14
1.79819e-15
1.06495e-14
6.19455e-15
7.09484e-15
1.09531e-14
3.98945e-15
1.5993e-14
1.2098e-15
2.12385e-14
-1.31657e-15
2.66139e-14
-3.60353e-15
3.20368e-14
-5.66618e-15
3.74121e-14
-7.56455e-15
4.2635e-14
-9.37912e-15
4.76035e-14
-1.11507e-14
5.2229e-14
-1.28504e-14
5.64403e-14
-1.44095e-14
6.01801e-14
-1.57762e-14
6.34026e-14
-1.69463e-14
6.60732e-14
-1.79481e-14
6.81675e-14
-1.87979e-14
6.9667e-14
-1.94652e-14
7.05552e-14
-1.98719e-14
7.08188e-14
-1.99245e-14
7.04558e-14
-1.95563e-14
6.94812e-14
-1.87516e-14
6.79259e-14
-1.75362e-14
6.58262e-14
-1.59415e-14
6.3212e-14
-1.39647e-14
6.01028e-14
-1.15544e-14
5.65158e-14
-8.6313e-15
5.24796e-14
-5.13329e-15
4.80423e-14
-1.05738e-15
4.32657e-14
3.53489e-15
3.8207e-14
8.55974e-15
3.28988e-14
1.39798e-14
2.73472e-14
1.98436e-14
2.15542e-14
2.62527e-14
1.55528e-14
3.32711e-14
9.42383e-15
4.08551e-14
3.27264e-15
4.88853e-14
-2.81858e-15
5.72904e-14
-8.81962e-15
6.61446e-14
-1.47287e-14
7.56205e-14
-2.05154e-14
8.58244e-14
-2.60845e-14
9.66862e-14
-3.12949e-14
1.08052e-13
-3.60023e-14
1.19901e-13
-4.00631e-14
1.32435e-13
-4.32917e-14
1.45891e-13
-4.54432e-14
1.603e-13
-4.62714e-14
1.75514e-13
-4.5591e-14
1.91487e-13
-4.32289e-14
2.08395e-13
-3.89035e-14
2.26358e-13
-3.22125e-14
2.45209e-13
-2.27919e-14
2.64757e-13
-1.04461e-14
2.85129e-13
4.9782e-15
3.06481e-13
2.38245e-14
3.28572e-13
4.6458e-14
3.51264e-13
7.28513e-14
3.74941e-13
1.03064e-13
3.99563e-13
1.37242e-13
4.25413e-13
1.75474e-13
4.5264e-13
2.18303e-13
4.81779e-13
2.65141e-13
5.14089e-13
3.17268e-13
5.49763e-13
3.74945e-13
5.90355e-13
4.39558e-13
6.37176e-13
5.12698e-13
6.91256e-13
5.96687e-13
7.53811e-13
6.9437e-13
8.27137e-13
8.05713e-13
8.9764e-13
9.29334e-13
4.17899e-14
-5.2844e-13
5.3768e-14
-8.94632e-13
6.13802e-14
-6.80592e-13
6.39544e-14
-4.18295e-13
6.25328e-14
-2.25469e-13
5.84468e-14
-8.62376e-14
5.23669e-14
1.24408e-14
4.51986e-14
8.01519e-14
3.72847e-14
1.24848e-13
2.90914e-14
1.52164e-13
2.09269e-14
1.66799e-13
1.30665e-14
1.72136e-13
5.78057e-15
1.70784e-13
-7.75756e-16
1.64762e-13
-6.57307e-15
1.55657e-13
-1.1628e-14
1.44645e-13
-1.59407e-14
1.32501e-13
-1.94889e-14
1.1987e-13
-2.22427e-14
1.0727e-13
-2.4184e-14
9.49458e-14
-2.53342e-14
8.30446e-14
-2.57533e-14
7.17992e-14
-2.55131e-14
6.13889e-14
-2.46775e-14
5.18186e-14
-2.3291e-14
4.30432e-14
-2.13738e-14
3.50908e-14
-1.89365e-14
2.79903e-14
-1.60032e-14
2.16719e-14
-1.26199e-14
1.6018e-14
-8.84807e-15
1.09746e-14
-4.75121e-15
6.55203e-15
-3.85617e-16
2.72899e-15
4.20029e-15
-5.96449e-16
8.95833e-15
-3.54804e-15
1.38324e-14
-6.19105e-15
1.87559e-14
-8.5285e-15
2.36538e-14
-1.05656e-14
2.8446e-14
-1.23572e-14
3.30515e-14
-1.39844e-14
3.73952e-14
-1.54944e-14
4.1412e-14
-1.68677e-14
4.50473e-14
-1.80457e-14
4.82568e-14
-1.89864e-14
5.10051e-14
-1.96951e-14
5.32641e-14
-2.0207e-14
5.50101e-14
-2.05431e-14
5.62217e-14
-2.06756e-14
5.68819e-14
-2.05312e-14
5.6985e-14
-2.00271e-14
5.65416e-14
-1.91123e-14
5.55769e-14
-1.77857e-14
5.41222e-14
-1.608e-14
5.22046e-14
-1.40231e-14
4.98444e-14
-1.16048e-14
4.70599e-14
-8.77113e-15
4.38777e-14
-5.4499e-15
4.03396e-14
-1.59501e-15
3.65023e-14
2.78071e-15
3.24281e-14
7.6098e-15
2.81695e-14
1.28184e-14
2.37595e-14
1.83895e-14
1.92149e-14
2.4388e-14
1.45551e-14
3.09127e-14
9.82149e-15
3.80053e-14
5.07738e-15
4.56001e-14
3.85763e-16
5.3578e-14
-4.20831e-15
6.18852e-14
-8.66198e-15
7.05981e-14
-1.28937e-14
7.98517e-14
-1.67666e-14
8.96971e-14
-2.01356e-14
1.00055e-13
-2.2919e-14
1.10834e-13
-2.5107e-14
1.22089e-13
-2.66655e-14
1.33994e-13
-2.74227e-14
1.46649e-13
-2.7077e-14
1.59954e-13
-2.53373e-14
1.73774e-13
-2.20201e-14
1.8817e-13
-1.69745e-14
2.03349e-13
-9.9655e-15
2.19348e-13
-7.16945e-16
2.35961e-13
1.0985e-14
2.53056e-13
2.53542e-14
2.7076e-13
4.26615e-14
2.89173e-13
6.30656e-14
3.08168e-13
8.6625e-14
3.27705e-13
1.13531e-13
3.48034e-13
1.43929e-13
3.69167e-13
1.77987e-13
3.91356e-13
2.1547e-13
4.15159e-13
2.56732e-13
4.4052e-13
3.02011e-13
4.68812e-13
3.51587e-13
5.00188e-13
4.05833e-13
5.3611e-13
4.65656e-13
5.77353e-13
5.31916e-13
6.24999e-13
6.05504e-13
6.80228e-13
6.87094e-13
7.45549e-13
7.76438e-13
8.08297e-13
8.36698e-13
2.55707e-14
-5.19689e-13
9.75074e-15