/*--------------------------------*- C++ -*----------------------------------*\
| =========                 |                                                 |
| \\      /  F ield         | OpenFOAM: The Open Source CFD Toolbox           |
|  \\    /   O peration     | Version:  2406                                  |
|   \\  /    A nd           | Website:  www.openfoam.com                      |
|    \\/     M anipulation  |                                                 |
\*---------------------------------------------------------------------------*/
FoamFile
{
    version     2.0;
    format      ascii;
    arch        "LSB;label=32;scalar=64";
    class       volVectorField;
    location    "0.0002";
    object      U;
}
// * * * * * * * * * * * * * * * * * * * * * * * * * * * * * * * * * * * * * //

dimensions      [0 1 -1 0 0 0 0];

internalField   nonuniform List<vector> 
5000
(
(1.5537e-05 1.09179e-05 0)
(1.09933e-05 2.35421e-06 0)
(1.51469e-05 -9.00416e-06 0)
(3.00896e-05 -1.59617e-05 0)
(4.86581e-05 -1.89571e-05 0)
(6.89769e-05 -2.00259e-05 0)
(8.9098e-05 -2.00554e-05 0)
(0.000109596 -1.9412e-05 0)
(0.000129473 -1.883e-05 0)
(0.000147707 -1.77865e-05 0)
(0.000166004 -1.67485e-05 0)
(0.000183493 -1.5527e-05 0)
(0.000198639 -1.38105e-05 0)
(0.00021284 -1.1895e-05 0)
(0.000225466 -9.6891e-06 0)
(0.000234984 -7.03588e-06 0)
(0.000242028 -4.32021e-06 0)
(0.000246886 -1.66001e-06 0)
(0.000249001 1.02551e-06 0)
(0.000248681 3.30865e-06 0)
(0.000246654 4.87163e-06 0)
(0.000243234 6.16671e-06 0)
(0.000238714 7.6355e-06 0)
(0.000233437 9.00649e-06 0)
(0.000227384 9.95815e-06 0)
(0.00022034 1.08428e-05 0)
(0.000212322 1.2181e-05 0)
(0.000203431 1.3814e-05 0)
(0.000193488 1.50782e-05 0)
(0.000182227 1.56888e-05 0)
(0.000169783 1.60412e-05 0)
(0.000156703 1.65991e-05 0)
(0.000143442 1.72864e-05 0)
(0.000130011 1.76524e-05 0)
(0.000116173 1.74988e-05 0)
(0.000101869 1.71356e-05 0)
(8.7382e-05 1.69883e-05 0)
(7.31561e-05 1.70675e-05 0)
(5.95607e-05 1.69127e-05 0)
(4.68622e-05 1.60429e-05 0)
(3.53378e-05 1.44217e-05 0)
(2.53205e-05 1.24901e-05 0)
(1.7096e-05 1.07884e-05 0)
(1.07566e-05 9.5556e-06 0)
(6.16376e-06 8.64013e-06 0)
(3.0497e-06 7.72345e-06 0)
(1.17579e-06 6.60377e-06 0)
(4.3703e-07 5.30672e-06 0)
(8.67616e-07 3.98991e-06 0)
(2.57099e-06 2.77919e-06 0)
(5.62695e-06 1.68865e-06 0)
(1.00202e-05 6.63946e-07 0)
(1.56146e-05 -3.27269e-07 0)
(2.21799e-05 -1.25768e-06 0)
(2.9459e-05 -2.08235e-06 0)
(3.72475e-05 -2.80162e-06 0)
(4.54473e-05 -3.47035e-06 0)
(5.40605e-05 -4.14231e-06 0)
(6.31211e-05 -4.81018e-06 0)
(7.25983e-05 -5.40447e-06 0)
(8.23476e-05 -5.85072e-06 0)
(9.21411e-05 -6.14264e-06 0)
(0.000101761 -6.34672e-06 0)
(0.000111098 -6.53831e-06 0)
(0.000120183 -6.72639e-06 0)
(0.000129114 -6.83366e-06 0)
(0.000137936 -6.75253e-06 0)
(0.000146552 -6.43015e-06 0)
(0.000154724 -5.90678e-06 0)
(0.000162187 -5.26934e-06 0)
(0.000168777 -4.5597e-06 0)
(0.000174492 -3.72652e-06 0)
(0.000179417 -2.67583e-06 0)
(0.00018354 -1.3726e-06 0)
(0.000186587 1.32374e-07 0)
(0.000187999 1.82704e-06 0)
(0.000187018 3.92674e-06 0)
(0.000182786 6.91658e-06 0)
(0.000174326 1.13281e-05 0)
(0.000160495 1.74017e-05 0)
(0.000140064 2.49614e-05 0)
(0.000111934 3.36539e-05 0)
(7.52318e-05 4.33164e-05 0)
(2.9076e-05 5.40843e-05 0)
(-2.78254e-05 6.61083e-05 0)
(-9.72592e-05 7.9335e-05 0)
(-0.000181077 9.36826e-05 0)
(-0.000280848 0.000109311 0)
(-0.000398145 0.000126445 0)
(-0.000534866 0.000144965 0)
(-0.000692774 0.000164561 0)
(-0.000872972 0.000185351 0)
(-0.00107669 0.00020767 0)
(-0.00130655 0.000231486 0)
(-0.00156369 0.000257086 0)
(-0.00185223 0.000284968 0)
(-0.00221567 0.00031737 0)
(-0.00244905 0.000352591 0)
(-0.00323597 0.000392468 0)
(-0.00335089 0.000443183 0)
(3.68566e-05 1.18015e-05 0)
(6.00679e-05 -1.26409e-05 0)
(9.37815e-05 -3.4838e-05 0)
(0.00012694 -4.46491e-05 0)
(0.00015261 -4.87212e-05 0)
(0.000174266 -4.86837e-05 0)
(0.000193776 -4.7573e-05 0)
(0.000209057 -4.55001e-05 0)
(0.000222539 -4.37187e-05 0)
(0.000234919 -4.18401e-05 0)
(0.000244231 -3.95397e-05 0)
(0.000253314 -3.68399e-05 0)
(0.000262022 -3.37836e-05 0)
(0.000268077 -2.99938e-05 0)
(0.000272365 -2.52397e-05 0)
(0.000276857 -1.97892e-05 0)
(0.000280078 -1.42273e-05 0)
(0.000280129 -8.79271e-06 0)
(0.000278634 -3.56832e-06 0)
(0.000277297 9.44282e-07 0)
(0.000274849 4.33361e-06 0)
(0.000270149 6.87646e-06 0)
(0.000264482 9.02604e-06 0)
(0.000259096 1.08827e-05 0)
(0.0002533 1.2578e-05 0)
(0.000246167 1.45932e-05 0)
(0.000238179 1.72293e-05 0)
(0.000230134 2.01001e-05 0)
(0.000221644 2.25562e-05 0)
(0.000211741 2.44508e-05 0)
(0.000200404 2.6156e-05 0)
(0.000188618 2.7887e-05 0)
(0.000177049 2.93362e-05 0)
(0.000165293 3.00967e-05 0)
(0.00015264 3.02493e-05 0)
(0.000139206 3.03054e-05 0)
(0.000125992 3.05542e-05 0)
(0.000113917 3.05922e-05 0)
(0.000103 2.95896e-05 0)
(9.25903e-05 2.70309e-05 0)
(8.22831e-05 2.31913e-05 0)
(7.25317e-05 1.89262e-05 0)
(6.43658e-05 1.50244e-05 0)
(5.8569e-05 1.17274e-05 0)
(5.51162e-05 8.76502e-06 0)
(5.33166e-05 5.75629e-06 0)
(5.24296e-05 2.5616e-06 0)
(5.21897e-05 -6.77672e-07 0)
(5.28719e-05 -3.74694e-06 0)
(5.49556e-05 -6.55964e-06 0)
(5.8717e-05 -9.17374e-06 0)
(6.40424e-05 -1.16562e-05 0)
(7.05284e-05 -1.39628e-05 0)
(7.77266e-05 -1.59576e-05 0)
(8.5337e-05 -1.75419e-05 0)
(9.32564e-05 -1.87552e-05 0)
(0.000101515 -1.97472e-05 0)
(0.000110178 -2.06465e-05 0)
(0.000119258 -2.14539e-05 0)
(0.00012865 -2.2056e-05 0)
(0.000138091 -2.23403e-05 0)
(0.00014721 -2.23077e-05 0)
(0.000155675 -2.20738e-05 0)
(0.000163357 -2.17625e-05 0)
(0.000170376 -2.13945e-05 0)
(0.00017696 -2.08702e-05 0)
(0.000183172 -2.00624e-05 0)
(0.00018872 -1.89316e-05 0)
(0.000193016 -1.7551e-05 0)
(0.000195517 -1.60125e-05 0)
(0.000196075 -1.43002e-05 0)
(0.000194985 -1.22618e-05 0)
(0.000192612 -9.71335e-06 0)
(0.000188879 -6.55729e-06 0)
(0.000183088 -2.74717e-06 0)
(0.000174274 1.91848e-06 0)
(0.000161739 7.96155e-06 0)
(0.00014516 1.61012e-05 0)
(0.000124081 2.6869e-05 0)
(9.73462e-05 4.03228e-05 0)
(6.32285e-05 5.62041e-05 0)
(2.01953e-05 7.44105e-05 0)
(-3.25819e-05 9.52574e-05 0)
(-9.5683e-05 0.000119233 0)
(-0.000170245 0.000146585 0)
(-0.000257919 0.000177362 0)
(-0.000360053 0.00021178 0)
(-0.000477457 0.000250156 0)
(-0.000611123 0.000292363 0)
(-0.000762419 0.000337814 0)
(-0.00093231 0.000386253 0)
(-0.00112155 0.000437988 0)
(-0.00133133 0.000493151 0)
(-0.00156321 0.000552665 0)
(-0.0018183 0.000619076 0)
(-0.002102 0.000695108 0)
(-0.0024816 0.000793171 0)
(-0.00268231 0.000932608 0)
(-0.00343695 0.00108366 0)
(-0.00391157 0.00119328 0)
(4.94442e-05 -2.82103e-05 0)
(9.69626e-05 -8.3207e-05 0)
(0.000154912 -9.55314e-05 0)
(0.000198597 -8.89329e-05 0)
(0.000224214 -8.0477e-05 0)
(0.000240864 -7.05942e-05 0)
(0.000249361 -6.17806e-05 0)
(0.000252837 -5.52528e-05 0)
(0.000251755 -4.89474e-05 0)
(0.000248412 -4.41583e-05 0)
(0.00024388 -4.02049e-05 0)
(0.000237613 -3.59034e-05 0)
(0.000230432 -3.16095e-05 0)
(0.000223944 -2.70357e-05 0)
(0.000217405 -2.15133e-05 0)
(0.000210832 -1.54309e-05 0)
(0.000204931 -9.40689e-06 0)
(0.000199305 -3.44165e-06 0)
(0.000193999 2.40158e-06 0)
(0.000189473 7.58459e-06 0)
(0.000185098 1.17175e-05 0)
(0.000180198 1.49408e-05 0)
(0.00017535 1.75801e-05 0)
(0.000171188 1.98851e-05 0)
(0.000167234 2.21488e-05 0)
(0.000162844 2.46928e-05 0)
(0.000158299 2.75925e-05 0)
(0.000154184 3.06113e-05 0)
(0.000150353 3.34951e-05 0)
(0.000146181 3.61984e-05 0)
(0.00014151 3.87356e-05 0)
(0.00013679 4.09366e-05 0)
(0.000132325 4.25138e-05 0)
(0.000127836 4.338e-05 0)
(0.000122934 4.3775e-05 0)
(0.00011779 4.39819e-05 0)
(0.000113092 4.39243e-05 0)
(0.000109341 4.30987e-05 0)
(0.000106325 4.09459e-05 0)
(0.000103375 3.73156e-05 0)
(0.00010008 3.26004e-05 0)
(9.67213e-05 2.74501e-05 0)
(9.40345e-05 2.23531e-05 0)
(9.259e-05 1.74413e-05 0)
(9.2393e-05 1.26153e-05 0)
(9.2996e-05 7.79585e-06 0)
(9.39353e-05 3.05189e-06 0)
(9.5079e-05 -1.47359e-06 0)
(9.66405e-05 -5.71125e-06 0)
(9.89256e-05 -9.71701e-06 0)
(0.000102064 -1.35791e-05 0)
(0.000105922 -1.72811e-05 0)
(0.000110216 -2.06607e-05 0)
(0.000114673 -2.35091e-05 0)
(0.000119136 -2.57235e-05 0)
(0.000123558 -2.73778e-05 0)
(0.000127955 -2.86498e-05 0)
(0.000132356 -2.96683e-05 0)
(0.000136759 -3.04124e-05 0)
(0.000141076 -3.07439e-05 0)
(0.000145096 -3.0541e-05 0)
(0.000148518 -2.98083e-05 0)
(0.000151091 -2.86737e-05 0)
(0.000152748 -2.72782e-05 0)
(0.000153634 -2.56579e-05 0)
(0.000153934 -2.37246e-05 0)
(0.000153618 -2.13622e-05 0)
(0.000152319 -1.85431e-05 0)
(0.000149511 -1.53467e-05 0)
(0.000144883 -1.18488e-05 0)
(0.000138594 -7.98276e-06 0)
(0.000131079 -3.51295e-06 0)
(0.000122494 1.8549e-06 0)
(0.00011228 8.36778e-06 0)
(9.93292e-05 1.62851e-05 0)
(8.27199e-05 2.60677e-05 0)
(6.23104e-05 3.84374e-05 0)
(3.8558e-05 5.41117e-05 0)
(1.16937e-05 7.33842e-05 0)
(-1.88349e-05 9.6013e-05 0)
(-5.40091e-05 0.000121637 0)
(-9.44542e-05 0.000150331 0)
(-0.000140278 0.000182647 0)
(-0.000191736 0.000219116 0)
(-0.000249648 0.000259912 0)
(-0.000314815 0.000305134 0)
(-0.000387338 0.000355087 0)
(-0.000466979 0.000409904 0)
(-0.000553891 0.000469117 0)
(-0.000648292 0.000532086 0)
(-0.000749958 0.000598505 0)
(-0.000859064 0.000668243 0)
(-0.000975857 0.000742102 0)
(-0.00110093 0.000822332 0)
(-0.00123677 0.000913387 0)
(-0.00138534 0.00102376 0)
(-0.00160504 0.00117352 0)
(-0.0016644 0.00141138 0)
(-0.00207238 0.0016849 0)
(-0.00239892 0.00181929 0)
(5.69427e-05 -9.13942e-05 0)
(0.00011851 -0.00018872 0)
(0.000191088 -0.000174383 0)
(0.000241381 -0.000139489 0)
(0.00026646 -0.000107935 0)
(0.0002798 -8.30534e-05 0)
(0.000281743 -6.29143e-05 0)
(0.000276836 -4.80765e-05 0)
(0.00026808 -3.70809e-05 0)
(0.000255042 -2.87828e-05 0)
(0.000239801 -2.25594e-05 0)
(0.000224645 -1.78083e-05 0)
(0.000209359 -1.34465e-05 0)
(0.000193843 -9.05878e-06 0)
(0.000179014 -4.73703e-06 0)
(0.000166278 -3.24576e-07 0)
(0.000155176 4.23385e-06 0)
(0.000144563 8.66093e-06 0)
(0.000135389 1.27363e-05 0)
(0.000128557 1.63635e-05 0)
(0.000122686 1.9405e-05 0)
(0.000116593 2.18166e-05 0)
(0.000111227 2.38047e-05 0)
(0.000107559 2.56706e-05 0)
(0.000104791 2.75883e-05 0)
(0.000101821 2.96084e-05 0)
(9.89731e-05 3.17723e-05 0)
(9.72341e-05 3.41224e-05 0)
(9.66237e-05 3.66165e-05 0)
(9.62283e-05 3.90889e-05 0)
(9.55172e-05 4.13136e-05 0)
(9.48926e-05 4.31138e-05 0)
(9.49144e-05 4.44318e-05 0)
(9.54961e-05 4.53102e-05 0)
(9.6108e-05 4.57932e-05 0)
(9.65387e-05 4.58156e-05 0)
(9.71671e-05 4.51703e-05 0)
(9.84643e-05 4.35988e-05 0)
(0.00010039 4.09428e-05 0)
(0.000102377 3.7245e-05 0)
(0.000103875 3.27247e-05 0)
(0.000104852 2.76614e-05 0)
(0.000105781 2.22898e-05 0)
(0.000107181 1.67733e-05 0)
(0.000109198 1.12434e-05 0)
(0.000111561 5.83142e-06 0)
(0.000113865 6.48766e-07 0)
(0.000115895 -4.25992e-06 0)
(0.000117739 -8.92798e-06 0)
(0.000119652 -1.3409e-05 0)
(0.000121838 -1.76879e-05 0)
(0.000124307 -2.1637e-05 0)
(0.000126875 -2.50633e-05 0)
(0.00012928 -2.78171e-05 0)
(0.000131317 -2.98784e-05 0)
(0.000132909 -3.13511e-05 0)
(0.000134117 -3.23668e-05 0)
(0.000135079 -3.29745e-05 0)
(0.000135892 -3.31039e-05 0)
(0.000136498 -3.26308e-05 0)
(0.000136648 -3.14891e-05 0)
(0.000136005 -2.97317e-05 0)
(0.000134345 -2.74904e-05 0)
(0.000131705 -2.48677e-05 0)
(0.000128331 -2.18562e-05 0)
(0.000124421 -1.83589e-05 0)
(0.00011985 -1.42881e-05 0)
(0.000114137 -9.64252e-06 0)
(0.000106758 -4.47423e-06 0)
(9.75628e-05 1.22986e-06 0)
(8.69067e-05 7.62247e-06 0)
(7.52872e-05 1.4924e-05 0)
(6.27617e-05 2.32723e-05 0)
(4.87262e-05 3.2699e-05 0)
(3.2347e-05 4.33498e-05 0)
(1.32528e-05 5.57704e-05 0)
(-8.26129e-06 7.09062e-05 0)
(-3.1778e-05 8.96837e-05 0)
(-5.74083e-05 0.000112519 0)
(-8.57091e-05 0.000139277 0)
(-0.000116944 0.000169752 0)
(-0.000150726 0.000204088 0)
(-0.000186612 0.000242629 0)
(-0.000224773 0.000285458 0)
(-0.000265628 0.000332397 0)
(-0.000308963 0.000383449 0)
(-0.000354063 0.000438832 0)
(-0.000400575 0.000498406 0)
(-0.000448418 0.000561602 0)
(-0.000497182 0.000628138 0)
(-0.000546585 0.0006979 0)
(-0.000596473 0.000770899 0)
(-0.000646879 0.00084909 0)
(-0.000698881 0.000935186 0)
(-0.000754 0.00103524 0)
(-0.000813026 0.00116265 0)
(-0.000919855 0.00133623 0)
(-0.000878282 0.00160803 0)
(-0.00106784 0.00192594 0)
(-0.00116916 0.00207847 0)
(6.04166e-05 -0.000167552 0)
(0.000129791 -0.000312269 0)
(0.00020988 -0.000265675 0)
(0.000262221 -0.000193015 0)
(0.000287838 -0.000134823 0)
(0.000298101 -9.05279e-05 0)
(0.000297176 -5.73223e-05 0)
(0.000287757 -3.29649e-05 0)
(0.000273319 -1.58095e-05 0)
(0.000255723 -4.12425e-06 0)
(0.000236086 3.96459e-06 0)
(0.000215364 9.4772e-06 0)
(0.000194966 1.31586e-05 0)
(0.000175665 1.60089e-05 0)
(0.000157123 1.85569e-05 0)
(0.000140206 2.08076e-05 0)
(0.000125463 2.27903e-05 0)
(0.000112333 2.46779e-05 0)
(0.000101105 2.64527e-05 0)
(9.21244e-05 2.78375e-05 0)
(8.44579e-05 2.87096e-05 0)
(7.74975e-05 2.93168e-05 0)
(7.19592e-05 2.99417e-05 0)
(6.82289e-05 3.06112e-05 0)
(6.54451e-05 3.12767e-05 0)
(6.29194e-05 3.20701e-05 0)
(6.11689e-05 3.31976e-05 0)
(6.08996e-05 3.46666e-05 0)
(6.18003e-05 3.6259e-05 0)
(6.298e-05 3.77593e-05 0)
(6.41727e-05 3.91083e-05 0)
(6.59211e-05 4.032e-05 0)
(6.86584e-05 4.13261e-05 0)
(7.20641e-05 4.19558e-05 0)
(7.54777e-05 4.20441e-05 0)
(7.87074e-05 4.15158e-05 0)
(8.2196e-05 4.03556e-05 0)
(8.64043e-05 3.85258e-05 0)
(9.11871e-05 3.59388e-05 0)
(9.58471e-05 3.25188e-05 0)
(9.9753e-05 2.82905e-05 0)
(0.000102862 2.34123e-05 0)
(0.000105671 1.8131e-05 0)
(0.000108715 1.27006e-05 0)
(0.000112115 7.31504e-06 0)
(0.00011553 2.08324e-06 0)
(0.000118468 -2.96048e-06 0)
(0.000120669 -7.82058e-06 0)
(0.000122253 -1.24927e-05 0)
(0.000123582 -1.69222e-05 0)
(0.000124977 -2.09916e-05 0)
(0.000126506 -2.45483e-05 0)
(0.00012795 -2.7464e-05 0)
(0.000128956 -2.969e-05 0)
(0.000129246 -3.12688e-05 0)
(0.000128761 -3.22874e-05 0)
(0.00012768 -3.2799e-05 0)
(0.000126285 -3.2773e-05 0)
(0.00012476 -3.21147e-05 0)
(0.000123018 -3.07449e-05 0)
(0.000120717 -2.86734e-05 0)
(0.000117459 -2.60003e-05 0)
(0.000113077 -2.28377e-05 0)
(0.000107756 -1.92175e-05 0)
(0.000101875 -1.50692e-05 0)
(9.56515e-05 -1.02946e-05 0)
(8.8876e-05 -4.86925e-06 0)
(8.10145e-05 1.14138e-06 0)
(7.16359e-05 7.69341e-06 0)
(6.07899e-05 1.49085e-05 0)
(4.89265e-05 2.30924e-05 0)
(3.63591e-05 3.25723e-05 0)
(2.27901e-05 4.35026e-05 0)
(7.46287e-06 5.58681e-05 0)
(-1.01093e-05 6.97317e-05 0)
(-2.95898e-05 8.54815e-05 0)
(-5.01275e-05 0.000103772 0)
(-7.12581e-05 0.000125177 0)
(-9.33336e-05 0.000149941 0)
(-0.000116889 0.000178123 0)
(-0.00014174 0.000209931 0)
(-0.000167081 0.000245718 0)
(-0.000192457 0.00028564 0)
(-0.000218108 0.000329507 0)
(-0.000244052 0.000377137 0)
(-0.000269468 0.000428581 0)
(-0.000293515 0.000483778 0)
(-0.000316001 0.000542257 0)
(-0.00033651 0.00060357 0)
(-0.000354461 0.000667658 0)
(-0.000370008 0.000734518 0)
(-0.000382528 0.000804909 0)
(-0.000392473 0.000881029 0)
(-0.000401472 0.000966224 0)
(-0.000408048 0.00106841 0)
(-0.000413771 0.00119852 0)
(-0.000449468 0.0013764 0)
(-0.000351566 0.00164179 0)
(-0.000402466 0.00194438 0)
(-0.000371791 0.00208957 0)
(6.16714e-05 -0.00024872 0)
(0.000132429 -0.000443106 0)
(0.00021409 -0.000360853 0)
(0.00026694 -0.000246791 0)
(0.000290994 -0.000159933 0)
(0.00029979 -9.51261e-05 0)
(0.000296622 -4.75217e-05 0)
(0.000285279 -1.3811e-05 0)
(0.000269056 9.61537e-06 0)
(0.000248881 2.53357e-05 0)
(0.000226823 3.50629e-05 0)
(0.000204504 4.08228e-05 0)
(0.000182544 4.39781e-05 0)
(0.00016131 4.52485e-05 0)
(0.000140981 4.52537e-05 0)
(0.0001228 4.4692e-05 0)
(0.000106951 4.39758e-05 0)
(9.24724e-05 4.31392e-05 0)
(7.97715e-05 4.21002e-05 0)
(6.95717e-05 4.08364e-05 0)
(6.11178e-05 3.94367e-05 0)
(5.36507e-05 3.80649e-05 0)
(4.76728e-05 3.68276e-05 0)
(4.36144e-05 3.57365e-05 0)
(4.08363e-05 3.48326e-05 0)
(3.86829e-05 3.42399e-05 0)
(3.74314e-05 3.40344e-05 0)
(3.75991e-05 3.41416e-05 0)
(3.89834e-05 3.44266e-05 0)
(4.09336e-05 3.48293e-05 0)
(4.32308e-05 3.53408e-05 0)
(4.62107e-05 3.5869e-05 0)
(5.00909e-05 3.61991e-05 0)
(5.45585e-05 3.61199e-05 0)
(5.91415e-05 3.55607e-05 0)
(6.37792e-05 3.4578e-05 0)
(6.88292e-05 3.32108e-05 0)
(7.4525e-05 3.13691e-05 0)
(8.05489e-05 2.88732e-05 0)
(8.62071e-05 2.55979e-05 0)
(9.10023e-05 2.15868e-05 0)
(9.50181e-05 1.70459e-05 0)
(9.87687e-05 1.2239e-05 0)
(0.000102696 7.3761e-06 0)
(0.000106787 2.56664e-06 0)
(0.000110597 -2.15341e-06 0)
(0.000113619 -6.76335e-06 0)
(0.000115642 -1.12126e-05 0)
(0.000116872 -1.54082e-05 0)
(0.000117741 -1.92294e-05 0)
(0.000118597 -2.25547e-05 0)
(0.000119479 -2.52919e-05 0)
(0.000120106 -2.74007e-05 0)
(0.000120066 -2.88971e-05 0)
(0.000119076 -2.98281e-05 0)
(0.00011715 -3.02228e-05 0)
(0.00011459 -3.00515e-05 0)
(0.000111775 -2.92291e-05 0)
(0.000108894 -2.76713e-05 0)
(0.000105781 -2.53633e-05 0)
(0.000102006 -2.23822e-05 0)
(9.71787e-05 -1.88425e-05 0)
(9.125e-05 -1.48014e-05 0)
(8.45596e-05 -1.02037e-05 0)
(7.7545e-05 -4.92268e-06 0)
(7.03261e-05 1.12567e-06 0)
(6.25352e-05 7.89939e-06 0)
(5.36001e-05 1.52733e-05 0)
(4.3274e-05 2.31902e-05 0)
(3.19066e-05 3.178e-05 0)
(2.012e-05 4.13135e-05 0)
(8.13631e-06 5.20238e-05 0)
(-4.55529e-06 6.40014e-05 0)
(-1.8756e-05 7.73206e-05 0)
(-3.47271e-05 9.22844e-05 0)
(-5.18784e-05 0.000109472 0)
(-6.93747e-05 0.00012945 0)
(-8.69631e-05 0.000152424 0)
(-0.000104971 0.000178285 0)
(-0.000123473 0.000207029 0)
(-0.0001418 0.000238993 0)
(-0.00015915 0.000274525 0)
(-0.000175362 0.000313546 0)
(-0.000190577 0.000355739 0)
(-0.000204325 0.000401067 0)
(-0.000215683 0.000449666 0)
(-0.000224206 0.000501271 0)
(-0.000229811 0.000555427 0)
(-0.000231922 0.000612072 0)
(-0.000230177 0.000671037 0)
(-0.000224669 0.000732807 0)
(-0.000214866 0.000798519 0)
(-0.000201536 0.000870086 0)
(-0.000184324 0.000951538 0)
(-0.000163787 0.00105012 0)
(-0.000137624 0.00117459 0)
(-0.000127617 0.00134134 0)
(-2.6511e-06 0.00157859 0)
(3.01201e-05 0.00184125 0)
(0.000131673 0.00196743 0)
(5.9912e-05 -0.000328513 0)
(0.000128083 -0.000573068 0)
(0.000206161 -0.000453568 0)
(0.000255752 -0.000298973 0)
(0.0002784 -0.00018285 0)
(0.000285892 -9.78489e-05 0)
(0.000282046 -3.62725e-05 0)
(0.000269785 7.00242e-06 0)
(0.000253293 3.63041e-05 0)
(0.000233253 5.53304e-05 0)
(0.000211319 6.68518e-05 0)
(0.000189083 7.29625e-05 0)
(0.000167074 7.52128e-05 0)
(0.000145837 7.48312e-05 0)
(0.000125689 7.27957e-05 0)
(0.000107753 6.98134e-05 0)
(9.20557e-05 6.62748e-05 0)
(7.76323e-05 6.244e-05 0)
(6.48745e-05 5.85302e-05 0)
(5.44637e-05 5.46443e-05 0)
(4.57597e-05 5.08507e-05 0)
(3.81739e-05 4.73047e-05 0)
(3.21974e-05 4.41233e-05 0)
(2.81328e-05 4.12687e-05 0)
(2.53202e-05 3.86793e-05 0)
(2.31928e-05 3.64245e-05 0)
(2.20769e-05 3.46327e-05 0)
(2.24716e-05 3.3328e-05 0)
(2.41619e-05 3.24108e-05 0)
(2.6484e-05 3.17537e-05 0)
(2.9145e-05 3.12453e-05 0)
(3.2387e-05 3.07562e-05 0)
(3.64445e-05 3.0139e-05 0)
(4.11575e-05 2.92966e-05 0)
(4.6194e-05 2.8223e-05 0)
(5.14571e-05 2.69419e-05 0)
(5.71034e-05 2.54006e-05 0)
(6.31762e-05 2.34433e-05 0)
(6.93392e-05 2.09016e-05 0)
(7.50501e-05 1.77247e-05 0)
(7.99924e-05 1.40284e-05 0)
(8.43139e-05 1.00273e-05 0)
(8.8441e-05 5.91631e-06 0)
(9.26605e-05 1.79667e-06 0)
(9.68488e-05 -2.30953e-06 0)
(0.000100557 -6.39157e-06 0)
(0.000103344 -1.03936e-05 0)
(0.000105081 -1.42058e-05 0)
(0.000106016 -1.76929e-05 0)
(0.000106575 -2.07316e-05 0)
(0.000107064 -2.32352e-05 0)
(0.000107465 -2.51642e-05 0)
(0.000107451 -2.65237e-05 0)
(0.000106607 -2.73439e-05 0)
(0.000104704 -2.76436e-05 0)
(0.000101861 -2.73932e-05 0)
(9.84735e-05 -2.65079e-05 0)
(9.49491e-05 -2.48872e-05 0)
(9.14092e-05 -2.24818e-05 0)
(8.75834e-05 -1.93366e-05 0)
(8.29965e-05 -1.55663e-05 0)
(7.73356e-05 -1.12698e-05 0)
(7.07212e-05 -6.44684e-06 0)
(6.36336e-05 -9.90509e-07 0)
(5.65098e-05 5.22513e-06 0)
(4.93308e-05 1.22306e-05 0)
(4.15891e-05 1.99342e-05 0)
(3.27254e-05 2.82324e-05 0)
(2.26645e-05 3.71694e-05 0)
(1.19072e-05 4.69764e-05 0)
(1.02365e-06 5.79139e-05 0)
(-9.96556e-06 7.00619e-05 0)
(-2.16208e-05 8.33073e-05 0)
(-3.44163e-05 9.76063e-05 0)
(-4.8097e-05 0.000113269 0)
(-6.18642e-05 0.000130913 0)
(-7.52291e-05 0.00015107 0)
(-8.84458e-05 0.000173876 0)
(-0.000101872 0.000199222 0)
(-0.000115085 0.000227172 0)
(-0.00012708 0.000258037 0)
(-0.000137322 0.000291964 0)
(-0.000145992 0.000328703 0)
(-0.000152975 0.000367978 0)
(-0.000157379 0.000409847 0)
(-0.000158514 0.000454339 0)
(-0.000156312 0.000501046 0)
(-0.00015045 0.000549717 0)
(-0.000140621 0.000600653 0)
(-0.000126485 0.00065355 0)
(-0.000108073 0.000709318 0)
(-8.54041e-05 0.00076948 0)
(-5.87159e-05 0.000834611 0)
(-2.7509e-05 0.000911003 0)
(9.06315e-06 0.00100098 0)
(5.29183e-05 0.00111512 0)
(8.92594e-05 0.00126186 0)
(0.000224739 0.00146198 0)
(0.000299781 0.0016764 0)
(0.000433186 0.00177921 0)
(5.62373e-05 -0.000402966 0)
(0.000116924 -0.000692835 0)
(0.00018764 -0.000539944 0)
(0.000231794 -0.000346616 0)
(0.000251839 -0.000203482 0)
(0.000257803 -9.92967e-05 0)
(0.000253828 -2.47973e-05 0)
(0.000242115 2.71469e-05 0)
(0.000226513 6.22645e-05 0)
(0.000207831 8.44854e-05 0)
(0.000187571 9.74164e-05 0)
(0.000167025 0.000103527 0)
(0.000146731 0.000104773 0)
(0.000127181 0.000102851 0)
(0.000108574 9.89766e-05 0)
(9.19231e-05 9.38587e-05 0)
(7.72478e-05 8.7872e-05 0)
(6.36999e-05 8.13878e-05 0)
(5.17127e-05 7.48271e-05 0)
(4.19686e-05 6.8451e-05 0)
(3.39109e-05 6.23858e-05 0)
(2.69307e-05 5.67476e-05 0)
(2.13207e-05 5.15695e-05 0)
(1.73188e-05 4.67715e-05 0)
(1.45058e-05 4.23431e-05 0)
(1.25711e-05 3.84465e-05 0)
(1.18085e-05 3.52421e-05 0)
(1.24893e-05 3.26829e-05 0)
(1.42627e-05 3.05534e-05 0)
(1.65128e-05 2.86645e-05 0)
(1.90505e-05 2.69476e-05 0)
(2.21739e-05 2.53873e-05 0)
(2.6142e-05 2.39334e-05 0)
(3.08245e-05 2.25013e-05 0)
(3.58899e-05 2.10155e-05 0)
(4.11674e-05 1.94116e-05 0)
(4.67013e-05 1.76e-05 0)
(5.24862e-05 1.54619e-05 0)
(5.82645e-05 1.29093e-05 0)
(6.36486e-05 9.95506e-06 0)
(6.84256e-05 6.71767e-06 0)
(7.27146e-05 3.34974e-06 0)
(7.68142e-05 -4.50656e-08 0)
(8.08913e-05 -3.43739e-06 0)
(8.47924e-05 -6.83001e-06 0)
(8.8128e-05 -1.01967e-05 0)
(9.05426e-05 -1.3454e-05 0)
(9.19592e-05 -1.64783e-05 0)
(9.2623e-05 -1.91436e-05 0)
(9.29223e-05 -2.13533e-05 0)
(9.31125e-05 -2.30541e-05 0)
(9.31323e-05 -2.42346e-05 0)
(9.26394e-05 -2.491e-05 0)
(9.12472e-05 -2.50929e-05 0)
(8.88045e-05 -2.47597e-05 0)
(8.55222e-05 -2.38346e-05 0)
(8.18456e-05 -2.2212e-05 0)
(7.81454e-05 -1.98118e-05 0)
(7.44412e-05 -1.66349e-05 0)
(7.03733e-05 -1.27694e-05 0)
(6.54735e-05 -8.33236e-06 0)
(5.95514e-05 -3.37713e-06 0)
(5.28833e-05 2.15921e-06 0)
(4.60115e-05 8.41397e-06 0)
(3.92798e-05 1.54792e-05 0)
(3.25048e-05 2.33041e-05 0)
(2.51276e-05 3.17263e-05 0)
(1.67631e-05 4.0634e-05 0)
(7.62787e-06 5.01206e-05 0)
(-1.63834e-06 6.04663e-05 0)
(-1.06504e-05 7.19371e-05 0)
(-1.97419e-05 8.46008e-05 0)
(-2.96196e-05 9.83754e-05 0)
(-4.04895e-05 0.000113281 0)
(-5.16531e-05 0.000129604 0)
(-6.21472e-05 0.000147747 0)
(-7.17256e-05 0.000167922 0)
(-8.09094e-05 0.000190097 0)
(-8.99579e-05 0.000214285 0)
(-9.81664e-05 0.000240747 0)
(-0.000104559 0.000269742 0)
(-0.000108948 0.000301174 0)
(-0.000111611 0.000334742 0)
(-0.00011212 0.000370387 0)
(-0.000109496 0.000408231 0)
(-0.00010349 0.000448109 0)
(-9.42089e-05 0.000489668 0)
(-8.09274e-05 0.000532817 0)
(-6.38088e-05 0.000577758 0)
(-4.2694e-05 0.000624921 0)
(-1.6675e-05 0.000674216 0)
(1.20515e-05 0.000728092 0)
(4.64277e-05 0.000787042 0)
(8.52993e-05 0.00085543 0)
(0.000129192 0.000936301 0)
(0.000183138 0.00103609 0)
(0.00023318 0.00116097 0)
(0.000366979 0.00132289 0)
(0.000456609 0.00149068 0)
(0.000596367 0.00157068 0)
(5.06608e-05 -0.000466684 0)
(0.00010145 -0.000796787 0)
(0.000159809 -0.000614334 0)
(0.000196553 -0.000387812 0)
(0.000213105 -0.000220977 0)
(0.000217627 -0.000100178 0)
(0.000213643 -1.4073e-05 0)
(0.000203368 4.53823e-05 0)
(0.000189814 8.53697e-05 0)
(0.000173318 0.000110463 0)
(0.000155571 0.000124638 0)
(0.000137505 0.000130891 0)
(0.0001199 0.000131484 0)
(0.000103324 0.000128243 0)
(8.75486e-05 0.000122517 0)
(7.31822e-05 0.000115185 0)
(6.03033e-05 0.000106827 0)
(4.84242e-05 9.80212e-05 0)
(3.80935e-05 8.92926e-05 0)
(2.98096e-05 8.08583e-05 0)
(2.29041e-05 7.27371e-05 0)
(1.67924e-05 6.50088e-05 0)
(1.1797e-05 5.77919e-05 0)
(8.25326e-06 5.11412e-05 0)
(5.93282e-06 4.51215e-05 0)
(4.59446e-06 3.98558e-05 0)
(4.34692e-06 3.53859e-05 0)
(5.22875e-06 3.15589e-05 0)
(6.88676e-06 2.81426e-05 0)
(8.91837e-06 2.50264e-05 0)
(1.13156e-05 2.2251e-05 0)
(1.43709e-05 1.986e-05 0)
(1.82309e-05 1.7779e-05 0)
(2.26969e-05 1.58479e-05 0)
(2.74509e-05 1.39277e-05 0)
(3.23496e-05 1.19471e-05 0)
(3.74354e-05 9.86659e-06 0)
(4.2706e-05 7.6365e-06 0)
(4.79566e-05 5.21194e-06 0)
(5.28792e-05 2.59529e-06 0)
(5.7299e-05 -1.51686e-07 0)
(6.12941e-05 -2.9447e-06 0)
(6.50791e-05 -5.72521e-06 0)
(6.87661e-05 -8.47326e-06 0)
(7.22158e-05 -1.1179e-05 0)
(7.5101e-05 -1.38042e-05 0)
(7.71261e-05 -1.62674e-05 0)
(7.82361e-05 -1.84582e-05 0)
(7.86569e-05 -2.02691e-05 0)
(7.87322e-05 -2.16244e-05 0)
(7.86702e-05 -2.24946e-05 0)
(7.83819e-05 -2.28887e-05 0)
(7.75379e-05 -2.28272e-05 0)
(7.58107e-05 -2.23048e-05 0)
(7.31325e-05 -2.12656e-05 0)
(6.97746e-05 -1.96104e-05 0)
(6.61747e-05 -1.72394e-05 0)
(6.26211e-05 -1.41089e-05 0)
(5.90282e-05 -1.02633e-05 0)
(5.49914e-05 -5.81166e-06 0)
(5.01135e-05 -8.52376e-07 0)
(4.43637e-05 4.60721e-06 0)
(3.81558e-05 1.0671e-05 0)
(3.20283e-05 1.74813e-05 0)
(2.61614e-05 2.50988e-05 0)
(2.01791e-05 3.34413e-05 0)
(1.34848e-05 4.23585e-05 0)
(5.8752e-06 5.17925e-05 0)
(-2.18078e-06 6.18669e-05 0)
(-9.95333e-06 7.27934e-05 0)
(-1.71931e-05 8.46775e-05 0)
(-2.43928e-05 9.74552e-05 0)
(-3.21954e-05 0.000111073 0)
(-4.05568e-05 0.00012573 0)
(-4.86697e-05 0.000141854 0)
(-5.58105e-05 0.000159769 0)
(-6.20541e-05 0.000179425 0)
(-6.78651e-05 0.000200594 0)
(-7.30984e-05 0.000223299 0)
(-7.68869e-05 0.000247878 0)
(-7.86335e-05 0.000274513 0)
(-7.85155e-05 0.000302955 0)
(-7.66052e-05 0.000332943 0)
(-7.21636e-05 0.000364611 0)
(-6.44852e-05 0.000398066 0)
(-5.36825e-05 0.000432989 0)
(-3.98433e-05 0.00046931 0)
(-2.22831e-05 0.00050726 0)
(-6.14706e-07 0.00054635 0)
(2.4123e-05 0.000587939 0)
(5.34446e-05 0.0006321 0)
(8.64057e-05 0.000679095 0)
(0.000123252 0.000732872 0)
(0.00016537 0.000792711 0)
(0.000213361 0.000864328 0)
(0.000270071 0.000949757 0)
(0.000325035 0.00105342 0)
(0.000449933 0.00118191 0)
(0.000537636 0.00131044 0)
(0.00066679 0.00137093 0)
(4.4551e-05 -0.000516811 0)
(8.16617e-05 -0.000879012 0)
(0.000125998 -0.000673295 0)
(0.000152377 -0.000420416 0)
(0.000164528 -0.000234355 0)
(0.000167234 -0.000100036 0)
(0.000163435 -4.48686e-06 0)
(0.000154641 6.13443e-05 0)
(0.000143819 0.000104946 0)
(0.000130382 0.000132167 0)
(0.000116066 0.000147246 0)
(0.000101673 0.000153559 0)
(8.76128e-05 0.000153675 0)
(7.4296e-05 0.000149406 0)
(6.15313e-05 0.000142101 0)
(4.99959e-05 0.000132869 0)
(3.98729e-05 0.000122559 0)
(3.07022e-05 0.000111881 0)
(2.27646e-05 0.000101316 0)
(1.63026e-05 9.09824e-05 0)
(1.07835e-05 8.09084e-05 0)
(5.91298e-06 7.13045e-05 0)
(2.08755e-06 6.24252e-05 0)
(-4.1366e-07 5.43592e-05 0)
(-1.81204e-06 4.70913e-05 0)
(-2.36018e-06 4.06231e-05 0)
(-2.07531e-06 3.4925e-05 0)
(-1.0033e-06 2.98679e-05 0)
(6.28204e-07 2.53126e-05 0)
(2.64302e-06 2.12361e-05 0)
(5.11219e-06 1.77e-05 0)
(8.20011e-06 1.46979e-05 0)
(1.18953e-05 1.20826e-05 0)
(1.5983e-05 9.6545e-06 0)
(2.02555e-05 7.29158e-06 0)
(2.46713e-05 4.97974e-06 0)
(2.92846e-05 2.73754e-06 0)
(3.40547e-05 5.39897e-07 0)
(3.87652e-05 -1.67929e-06 0)
(4.31448e-05 -3.9679e-06 0)
(4.70627e-05 -6.31248e-06 0)
(5.06033e-05 -8.65134e-06 0)
(5.39503e-05 -1.0921e-05 0)
(5.71852e-05 -1.30872e-05 0)
(6.01721e-05 -1.51361e-05 0)
(6.26219e-05 -1.70426e-05 0)
(6.42865e-05 -1.87459e-05 0)
(6.5135e-05 -2.01545e-05 0)
(6.53768e-05 -2.11738e-05 0)
(6.53064e-05 -2.17401e-05 0)
(6.50782e-05 -2.18361e-05 0)
(6.45815e-05 -2.14799e-05 0)
(6.35189e-05 -2.06908e-05 0)
(6.1638e-05 -1.94537e-05 0)
(5.89482e-05 -1.77047e-05 0)
(5.57502e-05 -1.53503e-05 0)
(5.24372e-05 -1.2314e-05 0)
(4.92012e-05 -8.5815e-06 0)
(4.58696e-05 -4.21407e-06 0)
(4.20292e-05 6.8842e-07 0)
(3.73776e-05 6.06103e-06 0)
(3.20305e-05 1.19335e-05 0)
(2.6492e-05 1.84202e-05 0)
(2.12544e-05 2.56292e-05 0)
(1.63486e-05 3.35584e-05 0)
(1.12931e-05 4.20841e-05 0)
(5.55995e-06 5.10831e-05 0)
(-8.54901e-07 6.05867e-05 0)
(-7.36421e-06 7.08027e-05 0)
(-1.33691e-05 8.19454e-05 0)
(-1.88928e-05 9.40328e-05 0)
(-2.45117e-05 0.00010689 0)
(-3.05729e-05 0.000120405 0)
(-3.6607e-05 0.00013476 0)
(-4.17391e-05 0.000150349 0)
(-4.56718e-05 0.000167422 0)
(-4.89231e-05 0.000185892 0)
(-5.18789e-05 0.000205582 0)
(-5.39543e-05 0.000226568 0)
(-5.41821e-05 0.000249102 0)
(-5.2387e-05 0.000273203 0)
(-4.89909e-05 0.000298591 0)
(-4.37347e-05 0.000325154 0)
(-3.57121e-05 0.000353118 0)
(-2.4692e-05 0.000382513 0)
(-1.08545e-05 0.000412951 0)
(6.18823e-06 0.000444411 0)
(2.61464e-05 0.000477519 0)
(4.98648e-05 0.000511976 0)
(7.75012e-05 0.000547813 0)
(0.00010737 0.000587001 0)
(0.000141475 0.000628498 0)
(0.000179794 0.000675756 0)
(0.000221882 0.000728653 0)
(0.000270211 0.000790675 0)
(0.000326019 0.000863252 0)
(0.000380112 0.000948885 0)
(0.000492079 0.00105131 0)
(0.000569534 0.00115108 0)
(0.000679252 0.00119702 0)
(3.69842e-05 -0.000551543 0)
(5.94898e-05 -0.000934966 0)
(8.67031e-05 -0.000713709 0)
(0.000101927 -0.000442022 0)
(0.000109005 -0.000242585 0)
(0.000109436 -9.84282e-05 0)
(0.00010578 3.55624e-06 0)
(9.83267e-05 7.40992e-05 0)
(9.00789e-05 0.000120622 0)
(8.02874e-05 0.000149422 0)
(6.98845e-05 0.000165213 0)
(5.95889e-05 0.000171412 0)
(4.96451e-05 0.000170759 0)
(4.02159e-05 0.000165346 0)
(3.11209e-05 0.000156772 0)
(2.30765e-05 0.000146259 0)
(1.62418e-05 0.000134619 0)
(1.01119e-05 0.000122479 0)
(4.79256e-06 0.000110308 0)
(4.52465e-07 9.83199e-05 0)
(-3.19925e-06 8.66934e-05 0)
(-6.22855e-06 7.57442e-05 0)
(-8.32706e-06 6.57163e-05 0)
(-9.41059e-06 5.66004e-05 0)
(-9.72029e-06 4.82795e-05 0)
(-9.42245e-06 4.07207e-05 0)
(-8.51122e-06 3.39417e-05 0)
(-7.03176e-06 2.79014e-05 0)
(-5.12462e-06 2.25226e-05 0)
(-2.85506e-06 1.77782e-05 0)