/*--------------------------------*- C++ -*----------------------------------*\
| =========                 |                                                 |
| \\      /  F ield         | OpenFOAM: The Open Source CFD Toolbox           |
|  \\    /   O peration     | Version:  2406                                  |
|   \\  /    A nd           | Website:  www.openfoam.com                      |
|    \\/     M anipulation  |                                                 |
\*---------------------------------------------------------------------------*/
FoamFile
{
    version     2.0;
    format      ascii;
    arch        "LSB;label=32;scalar=64";
    class       volScalarField;
    location    "5";
    object      p;
}
// * * * * * * * * * * * * * * * * * * * * * * * * * * * * * * * * * * * * * //

dimensions      [0 2 -2 0 0 0 0];

internalField   nonuniform List<scalar> 
160
(
0.00110946
0.0010467
0.000990539
0.000946864
0.000909029
0.000873323
0.000839248
0.000806943
0.000776277
0.000746976
0.000718787
0.000691504
0.000664956
0.000638999
0.000613513
0.000588398
0.000563574
0.000538977
0.000514557
0.000490272
0.000466092
0.000441992
0.000417954
0.000393962
0.000370005
0.000346075
0.000322165
0.00029827
0.000274386
0.00025051
0.000226641
0.000202776
0.000178915
0.000155056
0.000131199
0.000107343
8.34878e-05
5.96335e-05
3.57796e-05
1.19263e-05
0.00100346
0.000986182
0.000960367
0.00093101
0.000900372
0.000869187
0.000838011
0.000807371
0.000777573
0.000748672
0.000720606
0.00069328
0.000666599
0.000640467
0.000614793
0.000589495
0.000564502
0.000539753
0.000515199
0.0004908
0.000466523
0.000442342
0.000418236
0.000394188
0.000370186
0.000346219
0.000322279
0.00029836
0.000274457
0.000250566
0.000226685
0.00020281
0.000178941
0.000155076
0.000131214
0.000107355
8.34967e-05
5.96399e-05
3.57837e-05
1.1928e-05
0.00100346
0.000986182
0.000960367
0.00093101
0.000900372
0.000869187
0.000838011
0.000807371
0.000777573
0.000748672
0.000720606
0.00069328
0.000666599
0.000640467
0.000614793
0.000589495
0.000564502
0.000539753
0.000515199
0.0004908
0.000466523
0.000442342
0.000418236
0.000394188
0.000370186
0.000346219
0.000322279
0.00029836
0.000274457
0.000250566
0.000226685
0.00020281
0.000178941
0.000155076
0.000131214
0.000107355
8.34967e-05
5.96398e-05
3.57837e-05
1.1928e-05
0.00110946
0.0010467
0.000990539
0.000946864
0.000909029
0.000873323
0.000839248
0.000806943
0.000776277
0.000746976
0.000718787
0.000691504
0.000664956
0.000638999
0.000613513
0.000588398
0.000563574
0.000538977
0.000514557
0.000490272
0.000466092
0.000441992
0.000417954
0.000393962
0.000370005
0.000346075
0.000322165
0.00029827
0.000274386
0.00025051
0.000226641
0.000202776
0.000178915
0.000155056
0.000131199
0.000107343
8.34879e-05
5.96335e-05
3.57797e-05
1.19263e-05
)
;

boundaryField
{
    inlet
    {
        type            fixedFluxPressure;
        gradient        uniform 0;
        value           nonuniform List<scalar> 4(0.00110946 0.00100346 0.00100346 0.00110946);
    }
    outlet
    {
        type            fixedValue;
        value           uniform 0;
    }
    walls
    {
        type            zeroGradient;
    }
    frontAndBack
    {
        type            empty;
    }
}


// ************************************************************************* //
