/*--------------------------------*- C++ -*----------------------------------*\
| =========                 |                                                 |
| \\      /  F ield         | OpenFOAM: The Open Source CFD Toolbox           |
|  \\    /   O peration     | Version:  2406                                  |
|   \\  /    A nd           | Website:  www.openfoam.com                      |
|    \\/     M anipulation  |                                                 |
\*---------------------------------------------------------------------------*/
FoamFile
{
    version     2.0;
    format      ascii;
    arch        "LSB;label=32;scalar=64";
    class       surfaceScalarField;
    location    "5";
    object      phi;
}
// * * * * * * * * * * * * * * * * * * * * * * * * * * * * * * * * * * * * * //

dimensions      [0 3 -1 0 0 0 0];

oriented        oriented;

internalField   nonuniform List<scalar> 
276
(
5.34577e-09
1.54228e-10
5.10947e-09
2.36299e-10
4.87807e-09
2.31397e-10
4.66754e-09
2.10531e-10
4.48203e-09
1.85518e-10
4.32349e-09
1.58533e-10
4.19146e-09
1.32035e-10
4.08341e-09
1.08053e-10
3.99584e-09
8.75669e-11
3.92544e-09
7.04014e-11
3.86924e-09
5.61983e-11
3.82465e-09
4.45911e-11
3.78945e-09
3.52026e-11
3.76178e-09
2.7669e-11
3.74011e-09
2.16621e-11
3.72322e-09
1.68984e-11
3.71008e-09
1.31382e-11
3.6999e-09
1.01827e-11
3.69203e-09
7.86834e-12
3.68596e-09
6.0622e-12
3.68131e-09
4.6572e-12
3.67774e-09
3.56756e-12
3.67501e-09
2.72498e-12
3.67294e-09
2.07531e-12
3.67136e-09
1.57577e-12
3.67017e-09
1.19275e-12
3.66927e-09
8.99863e-13
3.66859e-09
6.76518e-13
3.66809e-09
5.06668e-13
3.66771e-09
3.77857e-13
3.66743e-09
2.80442e-13
3.66722e-09
2.06986e-13
3.66707e-09
1.51771e-13
3.66696e-09
1.10429e-13
3.66688e-09
7.96429e-14
3.66682e-09
5.69115e-14
3.66678e-09
4.04431e-14
3.66675e-09
2.88172e-14
3.66673e-09
2.18819e-14
1.74316e-14
5.65423e-09
-1.17547e-17
5.89053e-09
-1.83759e-17
6.12192e-09
-1.29987e-17
6.33246e-09
-2.14819e-18
6.51797e-09
1.01271e-17
6.67651e-09
1.93853e-17
6.80854e-09
2.39543e-17
6.91659e-09
2.38456e-17
7.00416e-09
1.95416e-17
7.07456e-09
1.1706e-17
7.13076e-09
1.3822e-18
7.17535e-09
-9.72369e-18
7.21055e-09
-1.9263e-17
7.23822e-09
-2.46173e-17
7.25989e-09
-2.3668e-17
7.27678e-09
-1.5179e-17
7.28992e-09
1.09186e-18
7.30011e-09
2.42173e-17
7.30797e-09
5.24302e-17
7.31404e-09
8.36178e-17
7.31869e-09
1.15681e-16
7.32226e-09
1.46955e-16
7.32498e-09
1.76463e-16
7.32706e-09
2.04028e-16
7.32864e-09
2.30102e-16
7.32983e-09
2.55345e-16
7.33073e-09
2.80018e-16
7.33141e-09
3.03404e-16
7.33191e-09
3.23568e-16
7.33229e-09
3.37659e-16
7.33257e-09
3.4285e-16
7.33278e-09
3.37766e-16
7.33293e-09
3.23298e-16
7.33304e-09
3.01539e-16
7.33312e-09
2.76451e-16
7.33318e-09
2.56057e-16
7.33322e-09
2.40684e-16
7.33325e-09
2.15343e-16
7.33327e-09
1.67227e-16
1.25609e-16
5.65423e-09
-1.54228e-10
5.89053e-09
-2.36299e-10
6.12192e-09
-2.31397e-10
6.33246e-09
-2.10531e-10
6.51797e-09
-1.85518e-10
6.67651e-09
-1.58533e-10
6.80854e-09
-1.32035e-10
6.91659e-09
-1.08053e-10
7.00416e-09
-8.75669e-11
7.07456e-09
-7.04015e-11
7.13076e-09
-5.61984e-11
7.17535e-09
-4.45912e-11
7.21055e-09
-3.52026e-11
7.23822e-09
-2.7669e-11
7.25989e-09
-2.16621e-11
7.27678e-09
-1.68983e-11
7.28992e-09
-1.31382e-11
7.30011e-09
-1.01827e-11
7.30797e-09
-7.86838e-12
7.31404e-09
-6.06228e-12
7.31869e-09
-4.65733e-12
7.32226e-09
-3.56776e-12
7.32499e-09
-2.72526e-12
7.32706e-09
-2.07567e-12
7.32864e-09
-1.57622e-12
7.32983e-09
-1.19326e-12
7.33073e-09
-9.00429e-13
7.33141e-09
-6.77114e-13
7.33191e-09
-5.07274e-13
7.33229e-09
-3.78455e-13
7.33257e-09
-2.81019e-13
7.33278e-09
-2.07531e-13
7.33293e-09
-1.52278e-13
7.33304e-09
-1.10887e-13
7.33312e-09
-8.00395e-14
7.33318e-09
-5.7227e-14
7.33322e-09
-4.06581e-14
7.33325e-09
-2.89223e-14
7.33327e-09
-2.18899e-14
-1.73418e-14
5.34577e-09
5.10947e-09
4.87808e-09
4.66754e-09
4.48203e-09
4.32349e-09
4.19146e-09
4.08341e-09
3.99584e-09
3.92544e-09
3.86924e-09
3.82465e-09
3.78945e-09
3.76178e-09
3.74011e-09
3.72322e-09
3.71008e-09
3.6999e-09
3.69203e-09
3.68596e-09
3.68131e-09
3.67774e-09
3.67501e-09
3.67294e-09
3.67136e-09
3.67017e-09
3.66927e-09
3.66859e-09
3.66809e-09
3.66771e-09
3.66743e-09
3.66722e-09
3.66707e-09
3.66696e-09
3.66688e-09
3.66682e-09
3.66678e-09
3.66675e-09
3.66673e-09
)
;

boundaryField
{
    inlet
    {
        type            calculated;
        value           nonuniform List<scalar> 4(-5.5e-09 -5.5e-09 -5.5e-09 -5.5e-09);
    }
    outlet
    {
        type            calculated;
        value           nonuniform List<scalar> 4(3.66671e-09 7.33329e-09 7.33329e-09 3.66671e-09);
    }
    walls
    {
        type            calculated;
        value           uniform 0;
    }
    frontAndBack
    {
        type            empty;
    }
}


// ************************************************************************* //
