/*--------------------------------*- C++ -*----------------------------------*\
| =========                 |                                                 |
| \\      /  F ield         | OpenFOAM: The Open Source CFD Toolbox           |
|  \\    /   O peration     | Version:  2406                                  |
|   \\  /    A nd           | Website:  www.openfoam.com                      |
|    \\/     M anipulation  |                                                 |
\*---------------------------------------------------------------------------*/
FoamFile
{
    version     2.0;
    format      ascii;
    arch        "LSB;label=32;scalar=64";
    class       volVectorField;
    location    "5";
    object      U;
}
// * * * * * * * * * * * * * * * * * * * * * * * * * * * * * * * * * * * * * //

dimensions      [0 1 -1 0 0 0 0];

internalField   nonuniform List<vector> 
20
(
(0.0186767 -1.86123e-10 0)
(0.0195345 3.17909e-10 0)
(0.0200927 -1.3441e-10 0)
(0.0201625 7.8461e-10 0)
(0.0200656 -1.23729e-09 0)
(0.0199923 -3.2456e-09 0)
(0.0199738 -1.58741e-09 0)
(0.0199866 2.28153e-09 0)
(0.0200035 -5.51363e-10 0)
(0.0200029 -2.05292e-09 0)
(0.0186767 -1.8612e-10 0)
(0.0195345 3.17909e-10 0)
(0.0200927 -1.34441e-10 0)
(0.0201625 7.84607e-10 0)
(0.0200656 -1.23723e-09 0)
(0.0199923 -3.24551e-09 0)
(0.0199738 -1.58738e-09 0)
(0.0199866 2.28151e-09 0)
(0.0200035 -5.51638e-10 0)
(0.0200029 -2.05342e-09 0)
)
;

boundaryField
{
    inlet
    {
        type            fixedValue;
        value           uniform (0.02 0 0);
    }
    outlet
    {
        type            zeroGradient;
    }
    walls
    {
        type            noSlip;
    }
    frontAndBack
    {
        type            empty;
    }
}


// ************************************************************************* //
