/*--------------------------------*- C++ -*----------------------------------*\
| =========                 |                                                 |
| \\      /  F ield         | OpenFOAM: The Open Source CFD Toolbox           |
|  \\    /   O peration     | Version:  2406                                  |
|   \\  /    A nd           | Website:  www.openfoam.com                      |
|    \\/     M anipulation  |                                                 |
\*---------------------------------------------------------------------------*/
FoamFile
{
    version     2.0;
    format      ascii;
    arch        "LSB;label=32;scalar=64";
    class       volVectorField;
    location    "5";
    object      U;
}
// * * * * * * * * * * * * * * * * * * * * * * * * * * * * * * * * * * * * * //

dimensions      [0 1 -1 0 0 0 0];

internalField   nonuniform List<vector> 
160
(
(0.0189987 0.000658025 0)
(0.0187799 0.00126485 0)
(0.0182316 0.00141777 0)
(0.0174121 0.00136971 0)
(0.0166273 0.00123816 0)
(0.0159818 0.0010702 0)
(0.0154583 0.000893557 0)
(0.0150283 0.000726894 0)
(0.0146761 0.000579723 0)
(0.014391 0.000455088 0)
(0.0141628 0.000352584 0)
(0.0139814 0.000270156 0)
(0.0138379 0.000205042 0)
(0.0137248 0.000154322 0)
(0.0136361 0.000115255 0)
(0.0135668 8.5444e-05 0)
(0.0135128 6.28814e-05 0)
(0.0134709 4.5931e-05 0)
(0.0134385 3.32849e-05 0)
(0.0134134 2.39129e-05 0)
(0.0133942 1.70139e-05 0)
(0.0133794 1.19703e-05 0)
(0.0133681 8.31019e-06 0)
(0.0133595 5.67519e-06 0)
(0.013353 3.79505e-06 0)
(0.013348 2.46708e-06 0)
(0.0133443 1.54019e-06 0)
(0.0133414 9.02386e-07 0)
(0.0133393 4.71195e-07 0)
(0.0133377 1.86269e-07 0)
(0.0133366 3.77695e-09 0)
(0.0133357 -1.07852e-07 0)
(0.013335 -1.71121e-07 0)
(0.0133346 -2.01857e-07 0)
(0.0133342 -2.10944e-07 0)
(0.013334 -2.0563e-07 0)
(0.0133338 -1.90254e-07 0)
(0.0133337 -1.67011e-07 0)
(0.0133336 -1.34851e-07 0)
(0.0133335 -9.49326e-08 0)
(0.0201135 0.000651381 0)
(0.020894 0.00123746 0)
(0.0218079 0.00139043 0)
(0.0226522 0.00136413 0)
(0.0233815 0.00126669 0)
(0.0240064 0.00113688 0)
(0.0245353 0.00099537 0)
(0.0249729 0.000855968 0)
(0.025328 0.000726315 0)
(0.0256131 0.000609774 0)
(0.0258409 0.000507394 0)
(0.0260219 0.000419007 0)
(0.0261651 0.000343745 0)
(0.0262778 0.000280366 0)
(0.0263661 0.000227476 0)
(0.026435 0.00018368 0)
(0.0264887 0.00014766 0)
(0.0265303 0.000118213 0)
(0.0265625 9.42718e-05 0)
(0.0265873 7.49041e-05 0)
(0.0266064 5.93081e-05 0)
(0.026621 4.6803e-05 0)
(0.0266322 3.68164e-05 0)
(0.0266408 2.88712e-05 0)
(0.0266472 2.25727e-05 0)
(0.0266522 1.75966e-05 0)
(0.0266559 1.36779e-05 0)
(0.0266587 1.06016e-05 0)
(0.0266608 8.19369e-06 0)
(0.0266623 6.31424e-06 0)
(0.0266635 4.85123e-06 0)
(0.0266644 3.71529e-06 0)
(0.026665 2.8355e-06 0)
(0.0266655 2.15579e-06 0)
(0.0266658 1.63212e-06 0)
(0.026666 1.22996e-06 0)
(0.0266662 9.23196e-07 0)
(0.0266663 6.89485e-07 0)
(0.0266664 5.22067e-07 0)
(0.0266665 3.79718e-07 0)
(0.0201135 -0.000651381 0)
(0.020894 -0.00123746 0)
(0.0218079 -0.00139043 0)
(0.0226522 -0.00136413 0)
(0.0233815 -0.00126669 0)
(0.0240064 -0.00113688 0)
(0.0245353 -0.00099537 0)
(0.0249729 -0.000855968 0)
(0.025328 -0.000726315 0)
(0.0256131 -0.000609774 0)
(0.0258409 -0.000507394 0)
(0.0260219 -0.000419007 0)
(0.0261651 -0.000343745 0)
(0.0262778 -0.000280366 0)
(0.0263661 -0.000227476 0)
(0.026435 -0.00018368 0)
(0.0264887 -0.00014766 0)
(0.0265303 -0.000118213 0)
(0.0265625 -9.42715e-05 0)
(0.0265873 -7.49037e-05 0)
(0.0266064 -5.93077e-05 0)
(0.026621 -4.68027e-05 0)
(0.0266322 -3.68161e-05 0)
(0.0266408 -2.88711e-05 0)
(0.0266472 -2.25727e-05 0)
(0.0266522 -1.75966e-05 0)
(0.0266559 -1.3678e-05 0)
(0.0266587 -1.06016e-05 0)
(0.0266608 -8.19354e-06 0)
(0.0266623 -6.31397e-06 0)
(0.0266635 -4.85084e-06 0)
(0.0266644 -3.71483e-06 0)
(0.026665 -2.83501e-06 0)
(0.0266655 -2.15528e-06 0)
(0.0266658 -1.63157e-06 0)
(0.026666 -1.22924e-06 0)
(0.0266662 -9.22158e-07 0)
(0.0266663 -6.88138e-07 0)
(0.0266664 -5.20618e-07 0)
(0.0266665 -3.7809e-07 0)
(0.0189987 -0.000658025 0)
(0.0187799 -0.00126485 0)
(0.0182316 -0.00141777 0)
(0.0174121 -0.00136971 0)
(0.0166273 -0.00123816 0)
(0.0159818 -0.0010702 0)
(0.0154583 -0.000893558 0)
(0.0150283 -0.000726894 0)
(0.0146761 -0.000579723 0)
(0.014391 -0.000455089 0)
(0.0141628 -0.000352584 0)
(0.0139814 -0.000270156 0)
(0.0138379 -0.000205042 0)
(0.0137248 -0.000154322 0)
(0.0136361 -0.000115255 0)
(0.0135668 -8.5444e-05 0)
(0.0135128 -6.28814e-05 0)
(0.0134709 -4.59311e-05 0)
(0.0134385 -3.3285e-05 0)
(0.0134134 -2.39134e-05 0)
(0.0133942 -1.70146e-05 0)
(0.0133794 -1.19714e-05 0)
(0.0133681 -8.31169e-06 0)
(0.0133595 -5.67713e-06 0)
(0.013353 -3.79743e-06 0)
(0.013348 -2.46984e-06 0)
(0.0133443 -1.54325e-06 0)
(0.0133414 -9.0566e-07 0)
(0.0133393 -4.74579e-07 0)
(0.0133377 -1.89676e-07 0)
(0.0133366 -7.13575e-09 0)
(0.0133357 1.04595e-07 0)
(0.013335 1.68015e-07 0)
(0.0133346 1.98959e-07 0)
(0.0133342 2.08339e-07 0)
(0.013334 2.03434e-07 0)
(0.0133338 1.88582e-07 0)
(0.0133337 1.65935e-07 0)
(0.0133336 1.34355e-07 0)
(0.0133335 9.49693e-08 0)
)
;

boundaryField
{
    inlet
    {
        type            fixedValue;
        value           uniform (0.02 0 0);
    }
    outlet
    {
        type            zeroGradient;
    }
    walls
    {
        type            noSlip;
    }
    frontAndBack
    {
        type            empty;
    }
}


// ************************************************************************* //
