# Region type : patch outlet
# Faces       : 2
# Area        : 1.100000e-06
# Scale factor: 1.000000e+00
# Time        	areaIntegrate(U)
0.05          	(2.199992e-08 -1.163869e-13 0.000000e+00)
0.1           	(2.200072e-08 8.473688e-14 0.000000e+00)
0.15          	(2.200061e-08 7.473371e-14 0.000000e+00)
0.2           	(2.200048e-08 6.189131e-14 0.000000e+00)
0.25          	(2.200036e-08 5.156445e-14 0.000000e+00)
0.3           	(2.200024e-08 4.300750e-14 0.000000e+00)
0.35          	(2.200013e-08 3.575656e-14 0.000000e+00)
0.4           	(2.200003e-08 2.951049e-14 0.000000e+00)
0.45          	(2.199994e-08 2.407745e-14 0.000000e+00)
0.5           	(2.199986e-08 1.934596e-14 0.000000e+00)
0.55          	(2.199979e-08 1.520220e-14 0.000000e+00)
0.6           	(2.199972e-08 1.148113e-14 0.000000e+00)
0.65          	(2.199965e-08 8.284596e-15 0.000000e+00)
0.7           	(2.199959e-08 5.481350e-15 0.000000e+00)
0.75          	(2.199954e-08 3.027742e-15 0.000000e+00)
0.8           	(2.199949e-08 9.140260e-16 0.000000e+00)
0.85          	(2.199944e-08 -9.136054e-16 0.000000e+00)
0.9           	(2.199939e-08 -2.464433e-15 0.000000e+00)
0.95          	(2.199935e-08 -3.815909e-15 0.000000e+00)
1             	(2.199930e-08 -5.234066e-15 0.000000e+00)
1.05          	(2.199926e-08 -6.564041e-15 0.000000e+00)
1.1           	(2.199922e-08 -7.671596e-15 0.000000e+00)
1.15          	(2.199918e-08 -8.617480e-15 0.000000e+00)
1.2           	(2.199914e-08 -9.408159e-15 0.000000e+00)
1.25          	(2.199910e-08 -1.006113e-14 0.000000e+00)
1.3           	(2.199907e-08 -1.059265e-14 0.000000e+00)
1.35          	(2.199903e-08 -1.101849e-14 0.000000e+00)
1.4           	(2.199899e-08 -1.135189e-14 0.000000e+00)
1.45          	(2.199896e-08 -1.166104e-14 0.000000e+00)
1.5           	(2.199893e-08 -1.180086e-14 0.000000e+00)
1.55          	(2.199890e-08 -1.196639e-14 0.000000e+00)
1.6           	(2.199887e-08 -1.206731e-14 0.000000e+00)
1.65          	(2.199884e-08 -1.213237e-14 0.000000e+00)
1.7           	(2.199882e-08 -1.216738e-14 0.000000e+00)
1.75          	(2.199880e-08 -1.217629e-14 0.000000e+00)
1.8           	(2.199878e-08 -1.216210e-14 0.000000e+00)
1.85          	(2.199876e-08 -1.212705e-14 0.000000e+00)
1.9           	(2.199875e-08 -1.207290e-14 0.000000e+00)
1.95          	(2.199874e-08 -1.200108e-14 0.000000e+00)
2             	(2.199874e-08 -1.191282e-14 0.000000e+00)
2.05          	(2.199874e-08 -1.180920e-14 0.000000e+00)
2.1           	(2.199875e-08 -1.169118e-14 0.000000e+00)
2.15          	(2.199876e-08 -1.155966e-14 0.000000e+00)
2.2           	(2.199877e-08 -1.141546e-14 0.000000e+00)
2.25          	(2.199879e-08 -1.125936e-14 0.000000e+00)
2.3           	(2.199882e-08 -1.109208e-14 0.000000e+00)
2.35          	(2.199885e-08 -1.091434e-14 0.000000e+00)
2.4           	(2.199888e-08 -1.072683e-14 0.000000e+00)
2.45          	(2.199892e-08 -1.053022e-14 0.000000e+00)
2.5           	(2.199897e-08 -1.032519e-14 0.000000e+00)
2.55          	(2.199902e-08 -1.011232e-14 0.000000e+00)
2.6           	(2.199907e-08 -9.892144e-15 0.000000e+00)
2.65          	(2.199913e-08 -9.665175e-15 0.000000e+00)
2.7           	(2.199920e-08 -9.431940e-15 0.000000e+00)
2.75          	(2.199927e-08 -9.192837e-15 0.000000e+00)
2.8           	(2.199934e-08 -8.989527e-15 0.000000e+00)
2.85          	(2.199942e-08 -8.738778e-15 0.000000e+00)
2.9           	(2.199950e-08 -8.485318e-15 0.000000e+00)
2.95          	(2.199959e-08 -8.231885e-15 0.000000e+00)
3             	(2.199967e-08 -7.979413e-15 0.000000e+00)
3.05          	(2.199977e-08 -7.728789e-15 0.000000e+00)
3.1           	(2.199986e-08 -7.480919e-15 0.000000e+00)
3.15          	(2.199996e-08 -7.236573e-15 0.000000e+00)
3.2           	(2.200006e-08 -6.996407e-15 0.000000e+00)
3.25          	(2.200017e-08 -6.760946e-15 0.000000e+00)
3.3           	(2.200027e-08 -6.530643e-15 0.000000e+00)
3.35          	(2.200038e-08 -6.305889e-15 0.000000e+00)
3.4           	(2.200049e-08 -6.087014e-15 0.000000e+00)
3.45          	(2.200060e-08 -5.874296e-15 0.000000e+00)
3.5           	(2.200071e-08 -5.667969e-15 0.000000e+00)
3.55          	(2.200082e-08 -5.468232e-15 0.000000e+00)
3.6           	(2.200093e-08 -5.275246e-15 0.000000e+00)
3.65          	(2.200104e-08 -5.089143e-15 0.000000e+00)
3.7           	(2.200114e-08 -4.910025e-15 0.000000e+00)
3.75          	(2.200125e-08 -4.737964e-15 0.000000e+00)
3.8           	(2.200136e-08 -4.573001e-15 0.000000e+00)
3.85          	(2.200147e-08 -4.357832e-15 0.000000e+00)
3.9           	(2.200157e-08 -4.207184e-15 0.000000e+00)
3.95          	(2.200167e-08 -4.050697e-15 0.000000e+00)
4             	(2.200177e-08 -3.899592e-15 0.000000e+00)
4.05          	(2.200187e-08 -3.756158e-15 0.000000e+00)
4.1           	(2.200197e-08 -3.619723e-15 0.000000e+00)
4.15          	(2.200206e-08 -3.522000e-15 0.000000e+00)
4.2           	(2.200215e-08 -3.478506e-15 0.000000e+00)
4.25          	(2.200224e-08 -3.269282e-15 0.000000e+00)
4.3           	(2.200232e-08 -3.150691e-15 0.000000e+00)
4.35          	(2.200240e-08 -3.078136e-15 0.000000e+00)
4.4           	(2.200248e-08 -3.048169e-15 0.000000e+00)
4.45          	(2.200256e-08 -2.888133e-15 0.000000e+00)
4.5           	(2.200263e-08 -2.827751e-15 0.000000e+00)
4.55          	(2.200270e-08 -2.793656e-15 0.000000e+00)
4.6           	(2.200276e-08 -2.658328e-15 0.000000e+00)
4.65          	(2.200282e-08 -2.591528e-15 0.000000e+00)
4.7           	(2.200288e-08 -2.591721e-15 0.000000e+00)
4.75          	(2.200293e-08 -2.490983e-15 0.000000e+00)
4.8           	(2.200298e-08 -2.452827e-15 0.000000e+00)
4.85          	(2.200303e-08 -2.428398e-15 0.000000e+00)
4.9           	(2.200307e-08 -2.334280e-15 0.000000e+00)
4.95          	(2.200311e-08 -2.283930e-15 0.000000e+00)
5             	(2.200314e-08 -2.258484e-15 0.000000e+00)
5.05          	(2.200318e-08 -2.251897e-15 0.000000e+00)
5.1           	(2.200321e-08 -2.199073e-15 0.000000e+00)
5.15          	(2.200323e-08 -2.124793e-15 0.000000e+00)
5.2           	(2.200325e-08 -2.114931e-15 0.000000e+00)
5.25          	(2.200327e-08 -2.086979e-15 0.000000e+00)
5.3           	(2.200329e-08 -2.065289e-15 0.000000e+00)
5.35          	(2.200331e-08 -1.989933e-15 0.000000e+00)
5.4           	(2.200331e-08 -1.938396e-15 0.000000e+00)
5.45          	(2.200332e-08 -1.908486e-15 0.000000e+00)
5.5           	(2.200332e-08 -1.916059e-15 0.000000e+00)
5.55          	(2.200333e-08 -1.865755e-15 0.000000e+00)
5.6           	(2.200333e-08 -1.795476e-15 0.000000e+00)
5.65          	(2.200333e-08 -1.805080e-15 0.000000e+00)
5.7           	(2.200333e-08 -1.689949e-15 0.000000e+00)
5.75          	(2.200332e-08 -1.487318e-15 0.000000e+00)
5.8           	(2.200331e-08 -1.687265e-15 0.000000e+00)
5.85          	(2.200330e-08 -1.577066e-15 0.000000e+00)
5.9           	(2.200329e-08 -1.532488e-15 0.000000e+00)
5.95          	(2.200327e-08 -1.497324e-15 0.000000e+00)
6             	(2.200326e-08 -1.460099e-15 0.000000e+00)
6.05          	(2.200324e-08 -1.410860e-15 0.000000e+00)
6.1           	(2.200322e-08 -1.355850e-15 0.000000e+00)
6.15          	(2.200320e-08 -1.298637e-15 0.000000e+00)
6.2           	(2.200319e-08 -1.243729e-15 0.000000e+00)
6.25          	(2.200317e-08 -1.195129e-15 0.000000e+00)
6.3           	(2.200314e-08 -1.155894e-15 0.000000e+00)
6.35          	(2.200312e-08 -1.125035e-15 0.000000e+00)
6.4           	(2.200310e-08 -9.562499e-16 0.000000e+00)
6.45          	(2.200307e-08 -1.054999e-15 0.000000e+00)
6.5           	(2.200305e-08 -1.015745e-15 0.000000e+00)
6.55          	(2.200303e-08 -7.694587e-16 0.000000e+00)
6.6           	(2.200300e-08 -8.387591e-16 0.000000e+00)
6.65          	(2.200298e-08 -6.851809e-16 0.000000e+00)
6.7           	(2.200295e-08 -7.534052e-16 0.000000e+00)
6.75          	(2.200293e-08 -5.424433e-16 0.000000e+00)
6.8           	(2.200290e-08 -6.105145e-16 0.000000e+00)
6.85          	(2.200288e-08 -4.784311e-16 0.000000e+00)
6.9           	(2.200285e-08 -7.969666e-16 0.000000e+00)
6.95          	(2.200282e-08 -4.351840e-16 0.000000e+00)
7             	(2.200280e-08 -6.315410e-16 0.000000e+00)
7.05          	(2.200278e-08 -3.908031e-16 0.000000e+00)
7.1           	(2.200276e-08 -4.195863e-16 0.000000e+00)
7.15          	(2.200273e-08 -3.180458e-16 0.000000e+00)
7.2           	(2.200271e-08 -3.468707e-16 0.000000e+00)
7.25          	(2.200268e-08 -2.849751e-16 0.000000e+00)
7.3           	(2.200267e-08 -1.646789e-16 0.000000e+00)
7.35          	(2.200264e-08 -1.582369e-16 0.000000e+00)
7.4           	(2.200262e-08 -1.487773e-16 0.000000e+00)
7.45          	(2.200260e-08 -1.995311e-18 0.000000e+00)
7.5           	(2.200258e-08 -2.312435e-17 0.000000e+00)
7.55          	(2.200256e-08 1.371278e-16 0.000000e+00)
7.6           	(2.200254e-08 1.083896e-16 0.000000e+00)
7.65          	(2.200252e-08 2.374908e-16 0.000000e+00)
7.7           	(2.200251e-08 2.139287e-16 0.000000e+00)
7.75          	(2.200249e-08 3.088675e-16 0.000000e+00)
7.8           	(2.200248e-08 2.911890e-16 0.000000e+00)
7.85          	(2.200245e-08 3.386680e-16 0.000000e+00)
7.9           	(2.200244e-08 1.777195e-16 0.000000e+00)
7.95          	(2.200243e-08 8.201773e-17 0.000000e+00)
8             	(2.200242e-08 5.412915e-16 0.000000e+00)
8.05          	(2.200240e-08 2.138624e-16 0.000000e+00)
8.1           	(2.200238e-08 4.552031e-16 0.000000e+00)
8.15          	(2.200237e-08 2.542354e-16 0.000000e+00)
8.2           	(2.200236e-08 4.182046e-16 0.000000e+00)
8.25          	(2.200235e-08 4.172639e-16 0.000000e+00)
8.3           	(2.200234e-08 4.440559e-16 0.000000e+00)
8.35          	(2.200233e-08 2.845662e-16 0.000000e+00)
8.4           	(2.200232e-08 3.686478e-16 0.000000e+00)
8.45          	(2.200231e-08 3.280379e-16 0.000000e+00)
8.5           	(2.200230e-08 4.274868e-16 0.000000e+00)
8.55          	(2.200230e-08 5.157915e-16 0.000000e+00)
8.6           	(2.200229e-08 4.666594e-16 0.000000e+00)
8.65          	(2.200228e-08 4.769553e-16 0.000000e+00)
8.7           	(2.200228e-08 4.450426e-16 0.000000e+00)
8.75          	(2.200227e-08 4.622763e-16 0.000000e+00)
8.8           	(2.200227e-08 3.961710e-16 0.000000e+00)
8.85          	(2.200226e-08 4.233886e-16 0.000000e+00)
8.9           	(2.200226e-08 3.809000e-16 0.000000e+00)
8.95          	(2.200225e-08 4.015102e-16 0.000000e+00)
9             	(2.200225e-08 3.715280e-16 0.000000e+00)
9.05          	(2.200224e-08 3.715435e-16 0.000000e+00)
9.1           	(2.200224e-08 3.450099e-16 0.000000e+00)
9.15          	(2.200224e-08 3.325332e-16 0.000000e+00)
9.2           	(2.200223e-08 3.086597e-16 0.000000e+00)
9.25          	(2.200223e-08 3.107166e-16 0.000000e+00)
9.3           	(2.200223e-08 3.105838e-16 0.000000e+00)
9.35          	(2.200223e-08 2.705701e-16 0.000000e+00)
9.4           	(2.200222e-08 2.479874e-16 0.000000e+00)
9.45          	(2.200222e-08 2.231513e-16 0.000000e+00)
9.5           	(2.200222e-08 2.555876e-16 0.000000e+00)
9.55          	(2.200222e-08 2.868537e-16 0.000000e+00)
9.6           	(2.200222e-08 2.207430e-16 0.000000e+00)
9.65          	(2.200222e-08 1.913400e-16 0.000000e+00)
9.7           	(2.200222e-08 1.578596e-16 0.000000e+00)
9.75          	(2.200222e-08 1.244010e-16 0.000000e+00)
9.8           	(2.200221e-08 1.626058e-16 0.000000e+00)
9.85          	(2.200221e-08 2.045884e-16 0.000000e+00)
9.9           	(2.200221e-08 1.397109e-16 0.000000e+00)
9.95          	(2.200221e-08 8.299304e-17 0.000000e+00)
10            	(2.200221e-08 8.999052e-17 0.000000e+00)
