/*--------------------------------*- C++ -*----------------------------------*\
| =========                 |                                                 |
| \\      /  F ield         | OpenFOAM: The Open Source CFD Toolbox           |
|  \\    /   O peration     | Version:  2406                                  |
|   \\  /    A nd           | Website:  www.openfoam.com                      |
|    \\/     M anipulation  |                                                 |
\*---------------------------------------------------------------------------*/
FoamFile
{
    version     2.0;
    format      ascii;
    arch        "LSB;label=32;scalar=64";
    class       surfaceScalarField;
    location    "7";
    object      phi;
}
// * * * * * * * * * * * * * * * * * * * * * * * * * * * * * * * * * * * * * //

dimensions      [0 3 -1 0 0 0 0];

oriented        oriented;

internalField   nonuniform List<scalar> 
276
(
5.34577e-09
1.54228e-10
5.10947e-09
2.36299e-10
4.87807e-09
2.31397e-10
4.66754e-09
2.10531e-10
4.48203e-09
1.85518e-10
4.32349e-09
1.58533e-10
4.19146e-09
1.32035e-10
4.08341e-09
1.08053e-10
3.99584e-09
8.75668e-11
3.92544e-09
7.04013e-11
3.86924e-09
5.61982e-11
3.82465e-09
4.4591e-11
3.78945e-09
3.52024e-11
3.76178e-09
2.76688e-11
3.74011e-09
2.16619e-11
3.72322e-09
1.68981e-11
3.71008e-09
1.3138e-11
3.69989e-09
1.01826e-11
3.69203e-09
7.86821e-12
3.68596e-09
6.06211e-12
3.68131e-09
4.65715e-12
3.67774e-09
3.56756e-12
3.67501e-09
2.72503e-12
3.67294e-09
2.07542e-12
3.67136e-09
1.57597e-12
3.67017e-09
1.19305e-12
3.66927e-09
9.00316e-13
3.66859e-09
6.77168e-13
3.66809e-09
5.07572e-13
3.66771e-09
3.79075e-13
3.66742e-09
2.82033e-13
3.66722e-09
2.08999e-13
3.66706e-09
1.54244e-13
3.66695e-09
1.13375e-13
3.66686e-09
8.30511e-14
3.6668e-09
6.07394e-14
3.66676e-09
4.46372e-14
3.66673e-09
3.33035e-14
3.6667e-09
2.66346e-14
2.25934e-14
5.65423e-09
-5.75792e-19
5.89053e-09
6.27646e-18
6.12192e-09
1.46457e-17
6.33246e-09
2.7487e-17
6.51797e-09
4.61927e-17
6.67651e-09
7.02546e-17
6.80854e-09
9.8991e-17
6.91659e-09
1.31226e-16
7.00416e-09
1.63935e-16
7.07456e-09
1.91868e-16
7.13076e-09
2.10027e-16
7.17535e-09
2.13447e-16
7.21055e-09
1.97298e-16
7.23822e-09
1.57478e-16
7.25988e-09
9.21277e-17
7.27678e-09
4.67717e-18
7.28992e-09
-8.93602e-17
7.3001e-09
-1.76684e-16
7.30797e-09
-2.46612e-16
7.31403e-09
-2.89402e-16
7.31869e-09
-2.98532e-16
7.32226e-09
-2.72717e-16
7.32498e-09
-2.16212e-16
7.32706e-09
-1.38124e-16
7.32863e-09
-5.08466e-17
7.32983e-09
3.02405e-17
7.33073e-09
8.9941e-17
7.3314e-09
1.20802e-16
7.33191e-09
1.20786e-16
7.33229e-09
9.28797e-17
7.33257e-09
4.49927e-17
7.33278e-09
-1.10827e-17
7.33294e-09
-6.40418e-17
7.33305e-09
-1.0563e-16
7.33313e-09
-1.30336e-16
7.33319e-09
-1.35428e-16
7.33324e-09
-1.21161e-16
7.33327e-09
-8.95293e-17
7.3333e-09
-4.70154e-17
-1.34148e-17
5.65423e-09
-1.54228e-10
5.89053e-09
-2.36299e-10
6.12192e-09
-2.31397e-10
6.33246e-09
-2.10531e-10
6.51797e-09
-1.85518e-10
6.67651e-09
-1.58533e-10
6.80854e-09
-1.32035e-10
6.91659e-09
-1.08053e-10
7.00416e-09
-8.75671e-11
7.07456e-09
-7.04016e-11
7.13076e-09
-5.61985e-11
7.17535e-09
-4.45913e-11
7.21055e-09
-3.52027e-11
7.23822e-09
-2.7669e-11
7.25988e-09
-2.16621e-11
7.27678e-09
-1.68982e-11
7.28992e-09
-1.3138e-11
7.3001e-09
-1.01824e-11
7.30797e-09
-7.86803e-12
7.31403e-09
-6.06189e-12
7.31869e-09
-4.65691e-12
7.32226e-09
-3.56732e-12
7.32498e-09
-2.72482e-12
7.32706e-09
-2.07525e-12
7.32863e-09
-1.57585e-12
7.32983e-09
-1.19297e-12
7.33073e-09
-9.00275e-13
7.3314e-09
-6.77153e-13
7.33191e-09
-5.0757e-13
7.33229e-09
-3.79072e-13
7.33257e-09
-2.8202e-13
7.33278e-09
-2.08972e-13
7.33294e-09
-1.54202e-13
7.33305e-09
-1.13319e-13
7.33313e-09
-8.29868e-14
7.33319e-09
-6.06732e-14
7.33324e-09
-4.45755e-14
7.33327e-09
-3.32528e-14
7.3333e-09
-2.66003e-14
-2.25727e-14
5.34577e-09
5.10947e-09
4.87807e-09
4.66754e-09
4.48203e-09
4.32349e-09
4.19146e-09
4.08341e-09
3.99584e-09
3.92544e-09
3.86924e-09
3.82465e-09
3.78945e-09
3.76178e-09
3.74011e-09
3.72322e-09
3.71008e-09
3.69989e-09
3.69203e-09
3.68596e-09
3.68131e-09
3.67774e-09
3.67501e-09
3.67294e-09
3.67136e-09
3.67017e-09
3.66927e-09
3.66859e-09
3.66809e-09
3.66771e-09
3.66742e-09
3.66722e-09
3.66706e-09
3.66695e-09
3.66686e-09
3.6668e-09
3.66676e-09
3.66673e-09
3.6667e-09
)
;

boundaryField
{
    inlet
    {
        type            calculated;
        value           nonuniform List<scalar> 4(-5.5e-09 -5.5e-09 -5.5e-09 -5.5e-09);
    }
    outlet
    {
        type            calculated;
        value           nonuniform List<scalar> 4(3.66668e-09 7.33332e-09 7.33332e-09 3.66668e-09);
    }
    walls
    {
        type            calculated;
        value           uniform 0;
    }
    frontAndBack
    {
        type            empty;
    }
}


// ************************************************************************* //
