/*--------------------------------*- C++ -*----------------------------------*\
| =========                 |                                                 |
| \\      /  F ield         | OpenFOAM: The Open Source CFD Toolbox           |
|  \\    /   O peration     | Version:  2406                                  |
|   \\  /    A nd           | Website:  www.openfoam.com                      |
|    \\/     M anipulation  |                                                 |
\*---------------------------------------------------------------------------*/
FoamFile
{
    version     2.0;
    format      ascii;
    arch        "LSB;label=32;scalar=64";
    class       volVectorField;
    location    "7";
    object      U;
}
// * * * * * * * * * * * * * * * * * * * * * * * * * * * * * * * * * * * * * //

dimensions      [0 1 -1 0 0 0 0];

internalField   nonuniform List<vector> 
20
(
(0.0186771 2.34954e-10 0)
(0.0195336 4.63646e-10 0)
(0.0200938 3.45486e-10 0)
(0.0201619 1.2537e-10 0)
(0.0200603 -2.31171e-10 0)
(0.0199918 -3.32279e-10 0)
(0.0199802 -2.91118e-10 0)
(0.0199897 5.51322e-10 0)
(0.0199996 2.7705e-10 0)
(0.0200025 -5.74131e-10 0)
(0.0186771 2.34953e-10 0)
(0.0195336 4.63646e-10 0)
(0.0200938 3.45488e-10 0)
(0.0201619 1.25372e-10 0)
(0.0200603 -2.31175e-10 0)
(0.0199918 -3.32284e-10 0)
(0.0199802 -2.91116e-10 0)
(0.0199897 5.5132e-10 0)
(0.0199996 2.77081e-10 0)
(0.0200025 -5.74125e-10 0)
)
;

boundaryField
{
    inlet
    {
        type            fixedValue;
        value           uniform (0.02 0 0);
    }
    outlet
    {
        type            zeroGradient;
    }
    walls
    {
        type            noSlip;
    }
    frontAndBack
    {
        type            empty;
    }
}


// ************************************************************************* //
