/*--------------------------------*- C++ -*----------------------------------*\
| =========                 |                                                 |
| \\      /  F ield         | OpenFOAM: The Open Source CFD Toolbox           |
|  \\    /   O peration     | Version:  2406                                  |
|   \\  /    A nd           | Website:  www.openfoam.com                      |
|    \\/     M anipulation  |                                                 |
\*---------------------------------------------------------------------------*/
FoamFile
{
    version     2.0;
    format      ascii;
    arch        "LSB;label=32;scalar=64";
    class       volVectorField;
    location    "7";
    object      U;
}
// * * * * * * * * * * * * * * * * * * * * * * * * * * * * * * * * * * * * * //

dimensions      [0 1 -1 0 0 0 0];

internalField   nonuniform List<vector> 
160
(
(0.0189987 0.000658025 0)
(0.0187799 0.00126485 0)
(0.0182316 0.00141777 0)
(0.0174121 0.00136971 0)
(0.0166273 0.00123816 0)
(0.0159818 0.0010702 0)
(0.0154583 0.000893557 0)
(0.0150283 0.000726894 0)
(0.0146761 0.000579723 0)
(0.014391 0.000455088 0)
(0.0141628 0.000352583 0)
(0.0139814 0.000270155 0)
(0.0138379 0.000205041 0)
(0.0137248 0.000154321 0)
(0.0136361 0.000115253 0)
(0.0135668 8.54426e-05 0)
(0.0135128 6.28801e-05 0)
(0.0134709 4.59299e-05 0)
(0.0134385 3.3284e-05 0)
(0.0134134 2.39123e-05 0)
(0.0133942 1.70136e-05 0)
(0.0133794 1.19704e-05 0)
(0.0133681 8.3109e-06 0)
(0.0133595 5.67685e-06 0)
(0.013353 3.7981e-06 0)
(0.013348 2.47205e-06 0)
(0.0133443 1.54767e-06 0)
(0.0133414 9.12995e-07 0)
(0.0133393 4.85506e-07 0)
(0.0133377 2.04752e-07 0)
(0.0133365 2.67382e-08 0)
(0.0133357 -8.03183e-08 0)
(0.013335 -1.39166e-07 0)
(0.0133345 -1.65889e-07 0)
(0.0133342 -1.71623e-07 0)
(0.0133339 -1.63828e-07 0)
(0.0133337 -1.46936e-07 0)
(0.0133336 -1.23258e-07 0)
(0.0133335 -9.13774e-08 0)
(0.0133334 -5.22017e-08 0)
(0.0201135 0.000651381 0)
(0.020894 0.00123746 0)
(0.0218079 0.00139043 0)
(0.0226522 0.00136413 0)
(0.0233815 0.00126669 0)
(0.0240064 0.00113688 0)
(0.0245353 0.00099537 0)
(0.0249729 0.000855968 0)
(0.025328 0.000726316 0)
(0.0256131 0.000609774 0)
(0.0258408 0.000507394 0)
(0.0260219 0.000419007 0)
(0.0261651 0.000343745 0)
(0.0262778 0.000280366 0)
(0.0263661 0.000227476 0)
(0.026435 0.000183679 0)
(0.0264887 0.000147658 0)
(0.0265303 0.000118211 0)
(0.0265625 9.42699e-05 0)
(0.0265873 7.49019e-05 0)
(0.0266064 5.93058e-05 0)
(0.026621 4.68007e-05 0)
(0.0266322 3.68141e-05 0)
(0.0266408 2.88688e-05 0)
(0.0266472 2.25703e-05 0)
(0.0266521 1.75941e-05 0)
(0.0266559 1.36755e-05 0)
(0.0266587 1.05994e-05 0)
(0.0266608 8.1919e-06 0)
(0.0266623 6.31338e-06 0)
(0.0266635 4.85189e-06 0)
(0.0266644 3.71818e-06 0)
(0.026665 2.84135e-06 0)
(0.0266655 2.1653e-06 0)
(0.0266658 1.64587e-06 0)
(0.0266661 1.24826e-06 0)
(0.0266663 9.46198e-07 0)
(0.0266664 7.17131e-07 0)
(0.0266665 5.53861e-07 0)
(0.0266666 4.1674e-07 0)
(0.0201135 -0.000651381 0)
(0.020894 -0.00123746 0)
(0.0218079 -0.00139043 0)
(0.0226522 -0.00136413 0)
(0.0233815 -0.00126669 0)
(0.0240064 -0.00113688 0)
(0.0245353 -0.00099537 0)
(0.0249729 -0.000855968 0)
(0.025328 -0.000726315 0)
(0.0256131 -0.000609774 0)
(0.0258409 -0.000507394 0)
(0.0260219 -0.000419006 0)
(0.0261651 -0.000343744 0)
(0.0262778 -0.000280365 0)
(0.0263661 -0.000227475 0)
(0.026435 -0.000183679 0)
(0.0264887 -0.000147659 0)
(0.0265303 -0.000118212 0)
(0.0265625 -9.42712e-05 0)
(0.0265873 -7.49036e-05 0)
(0.0266064 -5.93075e-05 0)
(0.026621 -4.68022e-05 0)
(0.0266322 -3.68152e-05 0)
(0.0266407 -2.88695e-05 0)
(0.0266472 -2.25704e-05 0)
(0.0266521 -1.75937e-05 0)
(0.0266559 -1.36747e-05 0)
(0.0266587 -1.05983e-05 0)
(0.0266608 -8.19087e-06 0)
(0.0266623 -6.31253e-06 0)
(0.0266635 -4.85137e-06 0)
(0.0266644 -3.71807e-06 0)
(0.026665 -2.84165e-06 0)
(0.0266655 -2.16593e-06 0)
(0.0266658 -1.64672e-06 0)
(0.0266661 -1.2492e-06 0)
(0.0266663 -9.47079e-07 0)
(0.0266664 -7.17839e-07 0)
(0.0266665 -5.54316e-07 0)
(0.0266666 -4.16913e-07 0)
(0.0189987 -0.000658025 0)
(0.0187799 -0.00126485 0)
(0.0182316 -0.00141777 0)
(0.0174121 -0.00136971 0)
(0.0166273 -0.00123816 0)
(0.0159818 -0.0010702 0)
(0.0154583 -0.000893558 0)
(0.0150283 -0.000726895 0)
(0.0146761 -0.000579724 0)
(0.014391 -0.00045509 0)
(0.0141628 -0.000352585 0)
(0.0139814 -0.000270157 0)
(0.0138379 -0.000205043 0)
(0.0137248 -0.000154322 0)
(0.0136361 -0.000115254 0)
(0.0135668 -8.5443e-05 0)
(0.0135128 -6.28799e-05 0)
(0.0134709 -4.5929e-05 0)
(0.0134385 -3.32825e-05 0)
(0.0134134 -2.39104e-05 0)
(0.0133942 -1.70115e-05 0)
(0.0133794 -1.19684e-05 0)
(0.0133681 -8.30912e-06 0)
(0.0133595 -5.67546e-06 0)
(0.013353 -3.79717e-06 0)
(0.013348 -2.47159e-06 0)
(0.0133443 -1.54759e-06 0)
(0.0133414 -9.13175e-07 0)
(0.0133393 -4.85785e-07 0)
(0.0133377 -2.04975e-07 0)
(0.0133365 -2.67797e-08 0)
(0.0133357 8.05339e-08 0)
(0.013335 1.3966e-07 0)
(0.0133345 1.66632e-07 0)
(0.0133342 1.72544e-07 0)
(0.0133339 1.64829e-07 0)
(0.0133337 1.47907e-07 0)
(0.0133336 1.24094e-07 0)
(0.0133335 9.19975e-08 0)
(0.0133334 5.26035e-08 0)
)
;

boundaryField
{
    inlet
    {
        type            fixedValue;
        value           uniform (0.02 0 0);
    }
    outlet
    {
        type            zeroGradient;
    }
    walls
    {
        type            noSlip;
    }
    frontAndBack
    {
        type            empty;
    }
}


// ************************************************************************* //
