# Region type : patch inlet
# Faces       : 2
# Area        : 1.100000e-06
# Scale factor: 1.000000e+00
# Time        	areaAverage(fields:(p))
10            
