/*--------------------------------*- C++ -*----------------------------------*\
| =========                 |                                                 |
| \\      /  F ield         | OpenFOAM: The Open Source CFD Toolbox           |
|  \\    /   O peration     | Version:  2406                                  |
|   \\  /    A nd           | Website:  www.openfoam.com                      |
|    \\/     M anipulation  |                                                 |
\*---------------------------------------------------------------------------*/
FoamFile
{
    version     2.0;
    format      ascii;
    arch        "LSB;label=32;scalar=64";
    class       surfaceScalarField;
    location    "8";
    object      phi;
}
// * * * * * * * * * * * * * * * * * * * * * * * * * * * * * * * * * * * * * //

dimensions      [0 3 -1 0 0 0 0];

oriented        oriented;

internalField   nonuniform List<scalar> 
276
(
5.34577e-09
1.54228e-10
5.10947e-09
2.36299e-10
4.87808e-09
2.31397e-10
4.66754e-09
2.10531e-10
4.48203e-09
1.85518e-10
4.32349e-09
1.58533e-10
4.19146e-09
1.32035e-10
4.08341e-09
1.08053e-10
3.99584e-09
8.75669e-11
3.92544e-09
7.04015e-11
3.86924e-09
5.61984e-11
3.82465e-09
4.45912e-11
3.78945e-09
3.52027e-11
3.76178e-09
2.76691e-11
3.74011e-09
2.16622e-11
3.72322e-09
1.68984e-11
3.71008e-09
1.31382e-11
3.69989e-09
1.01827e-11
3.69203e-09
7.86822e-12
3.68596e-09
6.06202e-12
3.68131e-09
4.65697e-12
3.67774e-09
3.5673e-12
3.67502e-09
2.72472e-12
3.67294e-09
2.07509e-12
3.67136e-09
1.57565e-12
3.67017e-09
1.19279e-12
3.66927e-09
9.00119e-13
3.66859e-09
6.77053e-13
3.66809e-09
5.07538e-13
3.66771e-09
3.7911e-13
3.66743e-09
2.82117e-13
3.66722e-09
2.09108e-13
3.66706e-09
1.54353e-13
3.66695e-09
1.13462e-13
3.66687e-09
8.31023e-14
3.66681e-09
6.07493e-14
3.66676e-09
4.46097e-14
3.66673e-09
3.32513e-14
3.6667e-09
2.65777e-14
2.25554e-14
5.65423e-09
-1.67437e-18
5.89053e-09
-2.59831e-18
6.12192e-09
-3.14689e-18
6.33246e-09
-4.20261e-18
6.51797e-09
-5.62441e-18
6.67651e-09
-7.82327e-18
6.80854e-09
-1.07716e-17
6.91659e-09
-1.39023e-17
7.00416e-09
-1.63077e-17
7.07456e-09
-1.67641e-17
7.13076e-09
-1.4543e-17
7.17535e-09
-9.45084e-18
7.21055e-09
-1.79425e-18
7.23822e-09
7.72762e-18
7.25989e-09
1.81827e-17
7.27678e-09
2.8522e-17
7.28992e-09
3.7703e-17
7.3001e-09
4.48968e-17
7.30797e-09
4.9647e-17
7.31404e-09
5.19117e-17
7.31869e-09
5.20071e-17
7.32226e-09
5.06703e-17
7.32498e-09
4.79307e-17
7.32706e-09
4.09871e-17
7.32863e-09
2.30683e-17
7.32983e-09
-8.35496e-19
7.33073e-09
-2.39498e-17
7.33141e-09
-4.12686e-17
7.33191e-09
-5.03281e-17
7.33229e-09
-5.106e-17
7.33257e-09
-4.50548e-17
7.33278e-09
-3.46371e-17
7.33294e-09
-2.16552e-17
7.33305e-09
-6.93099e-18
7.33313e-09
9.04747e-18
7.33319e-09
2.22105e-17
7.33324e-09
2.91143e-17
7.33327e-09
2.954e-17
7.3333e-09
2.38242e-17
4.85052e-18
5.65423e-09
-1.54228e-10
5.89053e-09
-2.36299e-10
6.12192e-09
-2.31397e-10
6.33246e-09
-2.10531e-10
6.51797e-09
-1.85518e-10
6.67651e-09
-1.58533e-10
6.80854e-09
-1.32035e-10
6.91659e-09
-1.08053e-10
7.00416e-09
-8.75669e-11
7.07456e-09
-7.04015e-11
7.13076e-09
-5.61984e-11
7.17535e-09
-4.45912e-11
7.21055e-09
-3.52027e-11
7.23822e-09
-2.76691e-11
7.25989e-09
-2.16622e-11
7.27678e-09
-1.68984e-11
7.28992e-09
-1.31383e-11
7.3001e-09
-1.01827e-11
7.30797e-09
-7.86828e-12
7.31403e-09
-6.06209e-12
7.31869e-09
-4.65705e-12
7.32226e-09
-3.56739e-12
7.32498e-09
-2.72481e-12
7.32706e-09
-2.07517e-12
7.32864e-09
-1.57571e-12
7.32983e-09
-1.19282e-12
7.33073e-09
-9.0013e-13
7.33141e-09
-6.77038e-13
7.33191e-09
-5.07499e-13
7.33229e-09
-3.79052e-13
7.33257e-09
-2.82047e-13
7.33278e-09
-2.09035e-13
7.33294e-09
-1.54286e-13
7.33305e-09
-1.13408e-13
7.33313e-09
-8.30657e-14
7.33319e-09
-6.0731e-14
7.33324e-09
-4.46064e-14
7.33327e-09
-3.32586e-14
7.3333e-09
-2.65873e-14
-2.25633e-14
5.34577e-09
5.10947e-09
4.87808e-09
4.66754e-09
4.48203e-09
4.32349e-09
4.19146e-09
4.08341e-09
3.99584e-09
3.92544e-09
3.86924e-09
3.82465e-09
3.78945e-09
3.76178e-09
3.74011e-09
3.72322e-09
3.71008e-09
3.69989e-09
3.69203e-09
3.68596e-09
3.68131e-09
3.67774e-09
3.67502e-09
3.67294e-09
3.67136e-09
3.67017e-09
3.66927e-09
3.66859e-09
3.66809e-09
3.66771e-09
3.66743e-09
3.66722e-09
3.66706e-09
3.66695e-09
3.66687e-09
3.66681e-09
3.66676e-09
3.66673e-09
3.6667e-09
)
;

boundaryField
{
    inlet
    {
        type            calculated;
        value           nonuniform List<scalar> 4(-5.5e-09 -5.5e-09 -5.5e-09 -5.5e-09);
    }
    outlet
    {
        type            calculated;
        value           nonuniform List<scalar> 4(3.66668e-09 7.33332e-09 7.33332e-09 3.66668e-09);
    }
    walls
    {
        type            calculated;
        value           uniform 0;
    }
    frontAndBack
    {
        type            empty;
    }
}


// ************************************************************************* //
