/*--------------------------------*- C++ -*----------------------------------*\
| =========                 |                                                 |
| \\      /  F ield         | OpenFOAM: The Open Source CFD Toolbox           |
|  \\    /   O peration     | Version:  2406                                  |
|   \\  /    A nd           | Website:  www.openfoam.com                      |
|    \\/     M anipulation  |                                                 |
\*---------------------------------------------------------------------------*/
FoamFile
{
    version     2.0;
    format      ascii;
    arch        "LSB;label=32;scalar=64";
    class       surfaceScalarField;
    location    "8";
    object      phi;
}
// * * * * * * * * * * * * * * * * * * * * * * * * * * * * * * * * * * * * * //

dimensions      [0 3 -1 0 0 0 0];

oriented        oriented;

internalField   nonuniform List<scalar> 
28
(
1.1e-08
2.48865e-16
1.1e-08
3.51678e-16
1.1e-08
2.32746e-16
1.1e-08
2.35048e-16
1.1e-08
2.86755e-16
1.1e-08
1.0957e-16
1.1e-08
-2.82521e-16
1.1e-08
4.26921e-17
1.1e-08
6.87076e-16
3.75544e-16
1.1e-08
1.1e-08
1.1e-08
1.1e-08
1.1e-08
1.1e-08
1.1e-08
1.1e-08
1.1e-08
)
;

boundaryField
{
    inlet
    {
        type            calculated;
        value           uniform -1.1e-08;
    }
    outlet
    {
        type            calculated;
        value           nonuniform List<scalar> 2(1.1e-08 1.1e-08);
    }
    walls
    {
        type            calculated;
        value           uniform 0;
    }
    frontAndBack
    {
        type            empty;
    }
}


// ************************************************************************* //
