/*--------------------------------*- C++ -*----------------------------------*\
| =========                 |                                                 |
| \\      /  F ield         | OpenFOAM: The Open Source CFD Toolbox           |
|  \\    /   O peration     | Version:  2406                                  |
|   \\  /    A nd           | Website:  www.openfoam.com                      |
|    \\/     M anipulation  |                                                 |
\*---------------------------------------------------------------------------*/
FoamFile
{
    version     2.0;
    format      ascii;
    arch        "LSB;label=32;scalar=64";
    class       volVectorField;
    location    "8";
    object      U;
}
// * * * * * * * * * * * * * * * * * * * * * * * * * * * * * * * * * * * * * //

dimensions      [0 1 -1 0 0 0 0];

internalField   nonuniform List<vector> 
160
(
(0.0189987 0.000658025 0)
(0.0187799 0.00126485 0)
(0.0182316 0.00141777 0)
(0.0174121 0.00136971 0)
(0.0166273 0.00123816 0)
(0.0159818 0.0010702 0)
(0.0154583 0.000893557 0)
(0.0150283 0.000726894 0)
(0.0146761 0.000579724 0)
(0.014391 0.000455089 0)
(0.0141628 0.000352584 0)
(0.0139814 0.000270157 0)
(0.0138379 0.000205043 0)
(0.0137248 0.000154322 0)
(0.0136361 0.000115255 0)
(0.0135668 8.54441e-05 0)
(0.0135128 6.28813e-05 0)
(0.0134709 4.59306e-05 0)
(0.0134385 3.3284e-05 0)
(0.0134134 2.39118e-05 0)
(0.0133942 1.70126e-05 0)
(0.0133794 1.19691e-05 0)
(0.0133681 8.30942e-06 0)
(0.0133595 5.67535e-06 0)
(0.013353 3.79674e-06 0)
(0.013348 2.47095e-06 0)
(0.0133443 1.5469e-06 0)
(0.0133414 9.12555e-07 0)
(0.0133393 4.85348e-07 0)
(0.0133377 2.04781e-07 0)
(0.0133365 2.68419e-08 0)
(0.0133357 -8.02443e-08 0)
(0.013335 -1.39202e-07 0)
(0.0133345 -1.66081e-07 0)
(0.0133342 -1.71977e-07 0)
(0.0133339 -1.64314e-07 0)
(0.0133337 -1.47492e-07 0)
(0.0133336 -1.23797e-07 0)
(0.0133335 -9.17996e-08 0)
(0.0133334 -5.2416e-08 0)
(0.0201135 0.000651381 0)
(0.020894 0.00123746 0)
(0.0218079 0.00139043 0)
(0.0226522 0.00136413 0)
(0.0233815 0.00126669 0)
(0.0240064 0.00113688 0)
(0.0245353 0.000995369 0)
(0.0249729 0.000855968 0)
(0.025328 0.000726315 0)
(0.0256131 0.000609774 0)
(0.0258409 0.000507394 0)
(0.0260219 0.000419007 0)
(0.0261651 0.000343745 0)
(0.0262778 0.000280366 0)
(0.0263661 0.000227476 0)
(0.026435 0.000183681 0)
(0.0264887 0.00014766 0)
(0.0265303 0.000118213 0)
(0.0265625 9.42715e-05 0)
(0.0265873 7.49034e-05 0)
(0.0266064 5.9307e-05 0)
(0.026621 4.68013e-05 0)
(0.0266322 3.68141e-05 0)
(0.0266408 2.88684e-05 0)
(0.0266472 2.25693e-05 0)
(0.0266522 1.75928e-05 0)
(0.0266559 1.36741e-05 0)
(0.0266587 1.0598e-05 0)
(0.0266608 8.19086e-06 0)
(0.0266623 6.31272e-06 0)
(0.0266635 4.85167e-06 0)
(0.0266644 3.71837e-06 0)
(0.026665 2.84188e-06 0)
(0.0266655 2.16603e-06 0)
(0.0266658 1.64665e-06 0)
(0.0266661 1.24898e-06 0)
(0.0266663 9.46732e-07 0)
(0.0266664 7.17422e-07 0)
(0.0266665 5.53896e-07 0)
(0.0266666 4.16565e-07 0)
(0.0201135 -0.000651381 0)
(0.020894 -0.00123746 0)
(0.0218079 -0.00139043 0)
(0.0226522 -0.00136413 0)
(0.0233815 -0.00126669 0)
(0.0240064 -0.00113688 0)
(0.0245353 -0.000995369 0)
(0.0249729 -0.000855968 0)
(0.025328 -0.000726315 0)
(0.0256131 -0.000609774 0)
(0.0258409 -0.000507394 0)
(0.0260219 -0.000419007 0)
(0.0261651 -0.000343745 0)
(0.0262778 -0.000280366 0)
(0.0263661 -0.000227476 0)
(0.026435 -0.000183681 0)
(0.0264887 -0.00014766 0)
(0.0265303 -0.000118213 0)
(0.0265625 -9.42714e-05 0)
(0.0265873 -7.49033e-05 0)
(0.0266064 -5.93069e-05 0)
(0.026621 -4.68013e-05 0)
(0.0266322 -3.68142e-05 0)
(0.0266408 -2.88685e-05 0)
(0.0266472 -2.25696e-05 0)
(0.0266522 -1.75932e-05 0)
(0.0266559 -1.36745e-05 0)
(0.0266587 -1.05985e-05 0)
(0.0266608 -8.19125e-06 0)
(0.0266623 -6.31302e-06 0)
(0.0266635 -4.85184e-06 0)
(0.0266644 -3.71839e-06 0)
(0.026665 -2.84175e-06 0)
(0.0266655 -2.16577e-06 0)
(0.0266658 -1.64631e-06 0)
(0.0266661 -1.2486e-06 0)
(0.0266663 -9.46381e-07 0)
(0.0266664 -7.17149e-07 0)
(0.0266665 -5.53729e-07 0)
(0.0266666 -4.16582e-07 0)
(0.0189987 -0.000658025 0)
(0.0187799 -0.00126485 0)
(0.0182316 -0.00141777 0)
(0.0174121 -0.00136971 0)
(0.0166273 -0.00123816 0)
(0.0159818 -0.0010702 0)
(0.0154583 -0.000893557 0)
(0.0150283 -0.000726894 0)
(0.0146761 -0.000579723 0)
(0.014391 -0.000455089 0)
(0.0141628 -0.000352584 0)
(0.0139814 -0.000270156 0)
(0.0138379 -0.000205042 0)
(0.0137248 -0.000154322 0)
(0.0136361 -0.000115255 0)
(0.0135668 -8.54437e-05 0)
(0.0135128 -6.28809e-05 0)
(0.0134709 -4.59302e-05 0)
(0.0134385 -3.32837e-05 0)
(0.0134134 -2.39115e-05 0)
(0.0133942 -1.70124e-05 0)
(0.0133794 -1.1969e-05 0)
(0.0133681 -8.30943e-06 0)
(0.0133595 -5.67548e-06 0)
(0.013353 -3.79696e-06 0)
(0.013348 -2.47123e-06 0)
(0.0133443 -1.5472e-06 0)
(0.0133414 -9.12845e-07 0)
(0.0133393 -4.85584e-07 0)
(0.0133377 -2.04938e-07 0)
(0.0133365 -2.69076e-08 0)
(0.0133357 8.02676e-08 0)
(0.013335 1.39298e-07 0)
(0.0133345 1.66223e-07 0)
(0.0133342 1.72135e-07 0)
(0.0133339 1.64462e-07 0)
(0.0133337 1.47609e-07 0)
(0.0133336 1.23873e-07 0)
(0.0133335 9.18377e-08 0)
(0.0133334 5.24385e-08 0)
)
;

boundaryField
{
    inlet
    {
        type            fixedValue;
        value           uniform (0.02 0 0);
    }
    outlet
    {
        type            zeroGradient;
    }
    walls
    {
        type            noSlip;
    }
    frontAndBack
    {
        type            empty;
    }
}


// ************************************************************************* //
