/*--------------------------------*- C++ -*----------------------------------*\
| =========                 |                                                 |
| \\      /  F ield         | OpenFOAM: The Open Source CFD Toolbox           |
|  \\    /   O peration     | Version:  2406                                  |
|   \\  /    A nd           | Website:  www.openfoam.com                      |
|    \\/     M anipulation  |                                                 |
\*---------------------------------------------------------------------------*/
FoamFile
{
    version     2.0;
    format      ascii;
    arch        "LSB;label=32;scalar=64";
    class       volVectorField;
    location    "8";
    object      U;
}
// * * * * * * * * * * * * * * * * * * * * * * * * * * * * * * * * * * * * * //

dimensions      [0 1 -1 0 0 0 0];

internalField   nonuniform List<vector> 
20
(
(0.0186771 2.14035e-10 0)
(0.0195336 3.45827e-10 0)
(0.0200936 2.85692e-10 0)
(0.020162 3.24161e-10 0)
(0.0200603 3.08358e-10 0)
(0.0199914 3.36737e-11 0)
(0.0199801 -5.74994e-10 0)
(0.0199908 -8.9026e-11 0)
(0.0199998 8.86819e-10 0)
(0.0200022 4.9208e-10 0)
(0.0186771 2.14035e-10 0)
(0.0195336 3.45827e-10 0)
(0.0200936 2.85692e-10 0)
(0.020162 3.24161e-10 0)
(0.0200603 3.08359e-10 0)
(0.0199914 3.36713e-11 0)
(0.0199801 -5.74992e-10 0)
(0.0199908 -8.90312e-11 0)
(0.0199998 8.86822e-10 0)
(0.0200022 4.92086e-10 0)
)
;

boundaryField
{
    inlet
    {
        type            fixedValue;
        value           uniform (0.02 0 0);
    }
    outlet
    {
        type            zeroGradient;
    }
    walls
    {
        type            noSlip;
    }
    frontAndBack
    {
        type            empty;
    }
}


// ************************************************************************* //
