/*--------------------------------*- C++ -*----------------------------------*\
| =========                 |                                                 |
| \\      /  F ield         | OpenFOAM: The Open Source CFD Toolbox           |
|  \\    /   O peration     | Version:  2406                                  |
|   \\  /    A nd           | Website:  www.openfoam.com                      |
|    \\/     M anipulation  |                                                 |
\*---------------------------------------------------------------------------*/
FoamFile
{
    version     2.0;
    format      ascii;
    arch        "LSB;label=32;scalar=64";
    class       volScalarField;
    location    "6";
    object      p;
}
// * * * * * * * * * * * * * * * * * * * * * * * * * * * * * * * * * * * * * //

dimensions      [0 2 -2 0 0 0 0];

internalField   nonuniform List<scalar> 
160
(
0.00110946
0.0010467
0.000990539
0.000946863
0.000909029
0.000873322
0.000839248
0.000806943
0.000776277
0.000746976
0.000718787
0.000691504
0.000664956
0.000638999
0.000613513
0.000588398
0.000563575
0.000538978
0.000514558
0.000490273
0.000466093
0.000441993
0.000417955
0.000393963
0.000370006
0.000346076
0.000322166
0.000298271
0.000274387
0.000250512
0.000226642
0.000202777
0.000178916
0.000155057
0.000131199
0.000107343
8.34882e-05
5.96338e-05
3.57798e-05
1.19263e-05
0.00100346
0.000986182
0.000960367
0.00093101
0.000900372
0.000869187
0.000838011
0.000807371
0.000777573
0.000748672
0.000720606
0.00069328
0.000666599
0.000640467
0.000614794
0.000589496
0.000564502
0.000539753
0.0005152
0.000490801
0.000466524
0.000442343
0.000418237
0.00039419
0.000370188
0.000346221
0.000322281
0.000298361
0.000274458
0.000250567
0.000226686
0.000202811
0.000178942
0.000155077
0.000131215
0.000107355
8.3497e-05
5.96401e-05
3.57838e-05
1.19281e-05
0.00100346
0.000986182
0.000960367
0.00093101
0.000900372
0.000869187
0.00083801
0.000807371
0.000777573
0.000748672
0.000720606
0.000693281
0.000666599
0.000640468
0.000614794
0.000589496
0.000564502
0.000539753
0.0005152
0.000490801
0.000466524
0.000442343
0.000418237
0.00039419
0.000370187
0.000346221
0.000322281
0.000298362
0.000274458
0.000250568
0.000226686
0.000202811
0.000178942
0.000155077
0.000131215
0.000107355
8.34972e-05
5.96402e-05
3.57839e-05
1.19281e-05
0.00110946
0.0010467
0.000990539
0.000946863
0.000909029
0.000873322
0.000839248
0.000806943
0.000776277
0.000746976
0.000718787
0.000691504
0.000664956
0.000638999
0.000613513
0.000588398
0.000563575
0.000538978
0.000514557
0.000490273
0.000466093
0.000441993
0.000417955
0.000393963
0.000370006
0.000346076
0.000322166
0.000298271
0.000274387
0.000250511
0.000226642
0.000202777
0.000178916
0.000155057
0.000131199
0.000107343
8.34881e-05
5.96336e-05
3.57797e-05
1.19262e-05
)
;

boundaryField
{
    inlet
    {
        type            fixedFluxPressure;
        gradient        uniform 0;
        value           nonuniform List<scalar> 4(0.00110946 0.00100346 0.00100346 0.00110946);
    }
    outlet
    {
        type            fixedValue;
        value           uniform 0;
    }
    walls
    {
        type            zeroGradient;
    }
    frontAndBack
    {
        type            empty;
    }
}


// ************************************************************************* //
