/*--------------------------------*- C++ -*----------------------------------*\
| =========                 |                                                 |
| \\      /  F ield         | OpenFOAM: The Open Source CFD Toolbox           |
|  \\    /   O peration     | Version:  2406                                  |
|   \\  /    A nd           | Website:  www.openfoam.com                      |
|    \\/     M anipulation  |                                                 |
\*---------------------------------------------------------------------------*/
FoamFile
{
    version     2.0;
    format      ascii;
    arch        "LSB;label=32;scalar=64";
    class       surfaceScalarField;
    location    "6";
    object      phi;
}
// * * * * * * * * * * * * * * * * * * * * * * * * * * * * * * * * * * * * * //

dimensions      [0 3 -1 0 0 0 0];

oriented        oriented;

internalField   nonuniform List<scalar> 
276
(
5.34577e-09
1.54228e-10
5.10947e-09
2.36299e-10
4.87807e-09
2.31397e-10
4.66754e-09
2.10531e-10
4.48203e-09
1.85518e-10
4.32349e-09
1.58533e-10
4.19146e-09
1.32035e-10
4.08341e-09
1.08053e-10
3.99584e-09
8.75669e-11
3.92544e-09
7.04015e-11
3.86924e-09
5.61984e-11
3.82465e-09
4.45912e-11
3.78944e-09
3.52027e-11
3.76178e-09
2.76691e-11
3.74011e-09
2.16622e-11
3.72321e-09
1.68984e-11
3.71008e-09
1.31383e-11
3.69989e-09
1.01827e-11
3.69203e-09
7.86831e-12
3.68596e-09
6.06212e-12
3.68131e-09
4.65707e-12
3.67774e-09
3.56739e-12
3.67501e-09
2.72481e-12
3.67294e-09
2.07517e-12
3.67136e-09
1.57572e-12
3.67017e-09
1.19284e-12
3.66927e-09
9.00168e-13
3.66859e-09
6.77092e-13
3.66808e-09
5.07568e-13
3.66771e-09
3.79131e-13
3.66742e-09
2.82129e-13
3.66721e-09
2.09112e-13
3.66706e-09
1.54349e-13
3.66695e-09
1.1345e-13
3.66686e-09
8.30779e-14
3.6668e-09
6.07066e-14
3.66676e-09
4.45353e-14
3.66673e-09
3.31224e-14
3.6667e-09
2.63618e-14
2.21933e-14
5.65423e-09
-2.26311e-18
5.89053e-09
-2.72934e-19
6.12192e-09
1.59546e-18
6.33246e-09
3.36885e-18
6.51797e-09
5.32456e-18
6.67651e-09
7.69453e-18
6.80854e-09
1.02743e-17
6.91659e-09
1.18659e-17
7.00416e-09
1.0692e-17
7.07456e-09
5.62476e-18
7.13076e-09
-3.05707e-18
7.17535e-09
-1.51283e-17
7.21055e-09
-3.05993e-17
7.23822e-09
-4.61792e-17
7.25988e-09
-5.78798e-17
7.27678e-09
-6.28178e-17
7.28992e-09
-6.01397e-17
7.3001e-09
-5.1009e-17
7.30797e-09
-3.80127e-17
7.31403e-09
-2.40817e-17
7.31869e-09
-1.15571e-17
7.32226e-09
-1.50785e-18
7.32498e-09
3.81758e-18
7.32706e-09
3.4422e-18
7.32863e-09
-1.48878e-18
7.32983e-09
-9.8509e-18
7.33073e-09
-2.14789e-17
7.3314e-09
-3.4463e-17
7.33191e-09
-4.69209e-17
7.33229e-09
-5.70937e-17
7.33257e-09
-6.37909e-17
7.33278e-09
-6.64367e-17
7.33294e-09
-6.49176e-17
7.33305e-09
-5.94397e-17
7.33313e-09
-5.05438e-17
7.33319e-09
-3.85267e-17
7.33324e-09
-2.3555e-17
7.33327e-09
-7.12741e-18
7.3333e-09
1.17148e-17
2.44905e-17
5.65423e-09
-1.54228e-10
5.89053e-09
-2.36299e-10
6.12192e-09
-2.31397e-10
6.33246e-09
-2.10531e-10
6.51797e-09
-1.85518e-10
6.67651e-09
-1.58533e-10
6.80854e-09
-1.32035e-10
6.91659e-09
-1.08053e-10
7.00416e-09
-8.75669e-11
7.07456e-09
-7.04015e-11
7.13076e-09
-5.61984e-11
7.17535e-09
-4.45912e-11
7.21055e-09
-3.52027e-11
7.23822e-09
-2.76691e-11
7.25988e-09
-2.16622e-11
7.27678e-09
-1.68984e-11
7.28992e-09
-1.31382e-11
7.3001e-09
-1.01827e-11
7.30797e-09
-7.86828e-12
7.31403e-09
-6.06211e-12
7.31869e-09
-4.65707e-12
7.32226e-09
-3.56741e-12
7.32498e-09
-2.72484e-12
7.32706e-09
-2.0752e-12
7.32863e-09
-1.57575e-12
7.32983e-09
-1.19285e-12
7.33073e-09
-9.00155e-13
7.3314e-09
-6.77055e-13
7.33191e-09
-5.07505e-13
7.33229e-09
-3.79045e-13
7.33257e-09
-2.82022e-13
7.33278e-09
-2.08987e-13
7.33294e-09
-1.54211e-13
7.33305e-09
-1.13303e-13
7.33313e-09
-8.29282e-14
7.33319e-09
-6.05591e-14
7.33324e-09
-4.4398e-14
7.33327e-09
-3.30042e-14
7.3333e-09
-2.62793e-14
-2.21485e-14
5.34577e-09
5.10947e-09
4.87807e-09
4.66754e-09
4.48203e-09
4.32349e-09
4.19146e-09
4.08341e-09
3.99584e-09
3.92544e-09
3.86924e-09
3.82465e-09
3.78944e-09
3.76178e-09
3.74011e-09
3.72321e-09
3.71008e-09
3.69989e-09
3.69203e-09
3.68596e-09
3.68131e-09
3.67774e-09
3.67501e-09
3.67294e-09
3.67136e-09
3.67017e-09
3.66927e-09
3.66859e-09
3.66808e-09
3.66771e-09
3.66742e-09
3.66721e-09
3.66706e-09
3.66695e-09
3.66686e-09
3.6668e-09
3.66676e-09
3.66673e-09
3.6667e-09
)
;

boundaryField
{
    inlet
    {
        type            calculated;
        value           nonuniform List<scalar> 4(-5.5e-09 -5.5e-09 -5.5e-09 -5.5e-09);
    }
    outlet
    {
        type            calculated;
        value           nonuniform List<scalar> 4(3.66668e-09 7.33332e-09 7.33332e-09 3.66668e-09);
    }
    walls
    {
        type            calculated;
        value           uniform 0;
    }
    frontAndBack
    {
        type            empty;
    }
}


// ************************************************************************* //
