/*--------------------------------*- C++ -*----------------------------------*\
| =========                 |                                                 |
| \\      /  F ield         | OpenFOAM: The Open Source CFD Toolbox           |
|  \\    /   O peration     | Version:  2406                                  |
|   \\  /    A nd           | Website:  www.openfoam.com                      |
|    \\/     M anipulation  |                                                 |
\*---------------------------------------------------------------------------*/
FoamFile
{
    version     2.0;
    format      ascii;
    arch        "LSB;label=32;scalar=64";
    class       surfaceScalarField;
    location    "6";
    object      phi;
}
// * * * * * * * * * * * * * * * * * * * * * * * * * * * * * * * * * * * * * //

dimensions      [0 3 -1 0 0 0 0];

oriented        oriented;

internalField   nonuniform List<scalar> 
28
(
1.1e-08
1.33283e-16
1.1e-08
1.09544e-16
1.1e-08
-2.67174e-16
1.1e-08
-2.94166e-16
1.1e-08
-1.17433e-17
1.1e-08
2.39034e-16
1.1e-08
-7.91351e-17
1.1e-08
1.2184e-17
1.1e-08
-7.02189e-16
-8.55059e-16
1.1e-08
1.1e-08
1.1e-08
1.1e-08
1.1e-08
1.1e-08
1.1e-08
1.1e-08
1.1e-08
)
;

boundaryField
{
    inlet
    {
        type            calculated;
        value           uniform -1.1e-08;
    }
    outlet
    {
        type            calculated;
        value           nonuniform List<scalar> 2(1.1e-08 1.1e-08);
    }
    walls
    {
        type            calculated;
        value           uniform 0;
    }
    frontAndBack
    {
        type            empty;
    }
}


// ************************************************************************* //
