/*--------------------------------*- C++ -*----------------------------------*\
| =========                 |                                                 |
| \\      /  F ield         | OpenFOAM: The Open Source CFD Toolbox           |
|  \\    /   O peration     | Version:  2406                                  |
|   \\  /    A nd           | Website:  www.openfoam.com                      |
|    \\/     M anipulation  |                                                 |
\*---------------------------------------------------------------------------*/
FoamFile
{
    version     2.0;
    format      ascii;
    arch        "LSB;label=32;scalar=64";
    class       volVectorField;
    location    "6";
    object      U;
}
// * * * * * * * * * * * * * * * * * * * * * * * * * * * * * * * * * * * * * //

dimensions      [0 1 -1 0 0 0 0];

internalField   nonuniform List<vector> 
160
(
(0.0189987 0.000658025 0)
(0.0187799 0.00126485 0)
(0.0182316 0.00141777 0)
(0.0174121 0.00136971 0)
(0.0166273 0.00123816 0)
(0.0159818 0.0010702 0)
(0.0154583 0.000893557 0)
(0.0150283 0.000726894 0)
(0.0146761 0.000579724 0)
(0.014391 0.000455089 0)
(0.0141628 0.000352584 0)
(0.0139814 0.000270157 0)
(0.0138379 0.000205043 0)
(0.0137248 0.000154322 0)
(0.0136361 0.000115255 0)
(0.0135668 8.54441e-05 0)
(0.0135128 6.28813e-05 0)
(0.0134709 4.59305e-05 0)
(0.0134385 3.3284e-05 0)
(0.0134134 2.39117e-05 0)
(0.0133942 1.70126e-05 0)
(0.0133794 1.19691e-05 0)
(0.0133681 8.30943e-06 0)
(0.0133595 5.67546e-06 0)
(0.013353 3.79697e-06 0)
(0.013348 2.47131e-06 0)
(0.0133443 1.54737e-06 0)
(0.0133414 9.13099e-07 0)
(0.0133393 4.85891e-07 0)
(0.0133377 2.05238e-07 0)
(0.0133365 2.71156e-08 0)
(0.0133357 -8.02594e-08 0)
(0.013335 -1.39608e-07 0)
(0.0133345 -1.6697e-07 0)
(0.0133342 -1.73422e-07 0)
(0.0133339 -1.66369e-07 0)
(0.0133337 -1.50189e-07 0)
(0.0133336 -1.2715e-07 0)
(0.0133335 -9.58189e-08 0)
(0.0133334 -5.71439e-08 0)
(0.0201135 0.000651381 0)
(0.020894 0.00123746 0)
(0.0218079 0.00139043 0)
(0.0226522 0.00136413 0)
(0.0233815 0.00126669 0)
(0.0240064 0.00113688 0)
(0.0245353 0.00099537 0)
(0.0249729 0.000855968 0)
(0.025328 0.000726315 0)
(0.0256131 0.000609774 0)
(0.0258408 0.000507394 0)
(0.0260219 0.000419007 0)
(0.0261651 0.000343745 0)
(0.0262778 0.000280366 0)
(0.0263661 0.000227476 0)
(0.026435 0.00018368 0)
(0.0264887 0.00014766 0)
(0.0265303 0.000118213 0)
(0.0265625 9.42715e-05 0)
(0.0265873 7.49034e-05 0)
(0.0266064 5.93069e-05 0)
(0.026621 4.68013e-05 0)
(0.0266322 3.68141e-05 0)
(0.0266407 2.88684e-05 0)
(0.0266472 2.25694e-05 0)
(0.0266521 1.7593e-05 0)
(0.0266559 1.36743e-05 0)
(0.0266587 1.05983e-05 0)
(0.0266608 8.19116e-06 0)
(0.0266623 6.31307e-06 0)
(0.0266635 4.85204e-06 0)
(0.0266644 3.71874e-06 0)
(0.026665 2.84221e-06 0)
(0.0266655 2.16631e-06 0)
(0.0266658 1.64684e-06 0)
(0.0266661 1.24905e-06 0)
(0.0266663 9.46642e-07 0)
(0.0266664 7.17091e-07 0)
(0.0266665 5.53318e-07 0)
(0.0266666 4.15376e-07 0)
(0.0201135 -0.000651381 0)
(0.020894 -0.00123746 0)
(0.0218079 -0.00139043 0)
(0.0226522 -0.00136413 0)
(0.0233815 -0.00126669 0)
(0.0240064 -0.00113688 0)
(0.0245352 -0.00099537 0)
(0.0249729 -0.000855968 0)
(0.025328 -0.000726315 0)
(0.0256131 -0.000609774 0)
(0.0258408 -0.000507394 0)
(0.0260219 -0.000419007 0)
(0.0261651 -0.000343745 0)
(0.0262778 -0.000280366 0)
(0.0263661 -0.000227477 0)
(0.026435 -0.000183681 0)
(0.0264887 -0.00014766 0)
(0.0265303 -0.000118213 0)
(0.0265625 -9.42717e-05 0)
(0.0265873 -7.49035e-05 0)
(0.0266064 -5.9307e-05 0)
(0.026621 -4.68013e-05 0)
(0.0266322 -3.68142e-05 0)
(0.0266407 -2.88684e-05 0)
(0.0266472 -2.25695e-05 0)
(0.0266521 -1.75932e-05 0)
(0.0266559 -1.36746e-05 0)
(0.0266587 -1.05986e-05 0)
(0.0266608 -8.19153e-06 0)
(0.0266623 -6.31345e-06 0)
(0.0266635 -4.8524e-06 0)
(0.0266644 -3.71907e-06 0)
(0.026665 -2.84249e-06 0)
(0.0266655 -2.16651e-06 0)
(0.0266658 -1.64697e-06 0)
(0.0266661 -1.24907e-06 0)
(0.0266663 -9.4656e-07 0)
(0.0266664 -7.16898e-07 0)
(0.0266665 -5.53015e-07 0)
(0.0266666 -4.14976e-07 0)
(0.0189987 -0.000658025 0)
(0.0187799 -0.00126485 0)
(0.0182316 -0.00141777 0)
(0.0174121 -0.00136971 0)
(0.0166273 -0.00123816 0)
(0.0159818 -0.0010702 0)
(0.0154583 -0.000893558 0)
(0.0150283 -0.000726894 0)
(0.0146761 -0.000579724 0)
(0.014391 -0.000455089 0)
(0.0141628 -0.000352584 0)
(0.0139814 -0.000270157 0)
(0.0138379 -0.000205043 0)
(0.0137248 -0.000154322 0)
(0.0136361 -0.000115255 0)
(0.0135668 -8.5444e-05 0)
(0.0135128 -6.28812e-05 0)
(0.0134709 -4.59305e-05 0)
(0.0134385 -3.3284e-05 0)
(0.0134134 -2.39118e-05 0)
(0.0133942 -1.70126e-05 0)
(0.0133794 -1.19691e-05 0)
(0.0133681 -8.30948e-06 0)
(0.0133595 -5.67548e-06 0)
(0.013353 -3.79695e-06 0)
(0.013348 -2.47123e-06 0)
(0.0133443 -1.54722e-06 0)
(0.0133414 -9.12885e-07 0)
(0.0133393 -4.8562e-07 0)
(0.0133377 -2.04924e-07 0)
(0.0133365 -2.6775e-08 0)
(0.0133357 8.0608e-08 0)
(0.013335 1.39946e-07 0)
(0.0133345 1.6728e-07 0)
(0.0133342 1.73691e-07 0)
(0.0133339 1.66589e-07 0)
(0.0133337 1.50358e-07 0)
(0.0133336 1.27277e-07 0)
(0.0133335 9.59152e-08 0)
(0.0133334 5.72291e-08 0)
)
;

boundaryField
{
    inlet
    {
        type            fixedValue;
        value           uniform (0.02 0 0);
    }
    outlet
    {
        type            zeroGradient;
    }
    walls
    {
        type            noSlip;
    }
    frontAndBack
    {
        type            empty;
    }
}


// ************************************************************************* //
