/*--------------------------------*- C++ -*----------------------------------*\
| =========                 |                                                 |
| \\      /  F ield         | OpenFOAM: The Open Source CFD Toolbox           |
|  \\    /   O peration     | Version:  2406                                  |
|   \\  /    A nd           | Website:  www.openfoam.com                      |
|    \\/     M anipulation  |                                                 |
\*---------------------------------------------------------------------------*/
FoamFile
{
    version     2.0;
    format      ascii;
    arch        "LSB;label=32;scalar=64";
    class       volVectorField;
    location    "6";
    object      U;
}
// * * * * * * * * * * * * * * * * * * * * * * * * * * * * * * * * * * * * * //

dimensions      [0 1 -1 0 0 0 0];

internalField   nonuniform List<vector> 
20
(
(0.0186769 7.70026e-11 0)
(0.0195338 2.3393e-10 0)
(0.0200938 -2.70912e-10 0)
(0.0201615 -3.0022e-10 0)
(0.0200614 -7.4675e-12 0)
(0.0199929 9.97377e-11 0)
(0.0199788 -4.44552e-10 0)
(0.0199877 2.60735e-10 0)
(0.0200005 -7.33035e-10 0)
(0.020003 -1.32732e-09 0)
(0.0186769 7.70012e-11 0)
(0.0195338 2.33935e-10 0)
(0.0200938 -2.70912e-10 0)
(0.0201615 -3.0023e-10 0)
(0.0200614 -7.47987e-12 0)
(0.0199929 9.97544e-11 0)
(0.0199788 -4.44528e-10 0)
(0.0199877 2.60772e-10 0)
(0.0200005 -7.32997e-10 0)
(0.020003 -1.32741e-09 0)
)
;

boundaryField
{
    inlet
    {
        type            fixedValue;
        value           uniform (0.02 0 0);
    }
    outlet
    {
        type            zeroGradient;
    }
    walls
    {
        type            noSlip;
    }
    frontAndBack
    {
        type            empty;
    }
}


// ************************************************************************* //
