/*--------------------------------*- C++ -*----------------------------------*\
| =========                 |                                                 |
| \\      /  F ield         | OpenFOAM: The Open Source CFD Toolbox           |
|  \\    /   O peration     | Version:  2406                                  |
|   \\  /    A nd           | Website:  www.openfoam.com                      |
|    \\/     M anipulation  |                                                 |
\*---------------------------------------------------------------------------*/
FoamFile
{
    version     2.0;
    format      ascii;
    arch        "LSB;label=32;scalar=64";
    class       volScalarField;
    location    "3";
    object      p;
}
// * * * * * * * * * * * * * * * * * * * * * * * * * * * * * * * * * * * * * //

dimensions      [0 2 -2 0 0 0 0];

internalField   nonuniform List<scalar> 
160
(
0.00110958
0.00104682
0.000990658
0.000946983
0.000909149
0.000873443
0.000839369
0.000807064
0.000776398
0.000747097
0.000718909
0.000691626
0.000665078
0.000639122
0.000613637
0.000588524
0.000563704
0.000539111
0.000514695
0.000490417
0.000466244
0.000442152
0.000418122
0.000394137
0.000370187
0.000346262
0.000322355
0.000298461
0.000274576
0.000250696
0.000226819
0.000202944
0.00017907
0.000155196
0.000131322
0.000107446
8.35705e-05
5.9694e-05
3.58169e-05
1.19392e-05
0.00100358
0.000986302
0.000960487
0.00093113
0.000900492
0.000869308
0.000838131
0.000807492
0.000777694
0.000748793
0.000720727
0.000693401
0.00066672
0.000640588
0.000614914
0.000589617
0.000564626
0.00053988
0.00051533
0.000490937
0.000466666
0.000442493
0.000418394
0.000394353
0.000370358
0.000346395
0.000322459
0.00029854
0.000274636
0.000250741
0.000226852
0.000202968
0.000179087
0.000155208
0.000131329
0.000107452
8.3574e-05
5.96961e-05
3.58177e-05
1.19391e-05
0.00100358
0.000986301
0.000960487
0.00093113
0.000900492
0.000869307
0.000838131
0.000807492
0.000777694
0.000748794
0.000720727
0.000693401
0.00066672
0.000640588
0.000614914
0.000589617
0.000564625
0.00053988
0.00051533
0.000490937
0.000466666
0.000442493
0.000418394
0.000394353
0.000370358
0.000346395
0.000322459
0.000298541
0.000274636
0.000250741
0.000226852
0.000202968
0.000179087
0.000155208
0.000131329
0.000107452
8.3574e-05
5.96961e-05
3.58177e-05
1.19391e-05
0.00110958
0.00104682
0.000990658
0.000946983
0.000909149
0.000873443
0.000839369
0.000807064
0.000776398
0.000747098
0.000718909
0.000691626
0.000665078
0.000639122
0.000613637
0.000588524
0.000563704
0.000539111
0.000514695
0.000490417
0.000466244
0.000442152
0.000418122
0.000394137
0.000370187
0.000346262
0.000322355
0.000298461
0.000274576
0.000250696
0.000226819
0.000202944
0.00017907
0.000155196
0.000131322
0.000107447
8.35709e-05
5.96942e-05
3.5817e-05
1.19392e-05
)
;

boundaryField
{
    inlet
    {
        type            fixedFluxPressure;
        gradient        uniform 0;
        value           nonuniform List<scalar> 4(0.00110958 0.00100358 0.00100358 0.00110958);
    }
    outlet
    {
        type            fixedValue;
        value           uniform 0;
    }
    walls
    {
        type            zeroGradient;
    }
    frontAndBack
    {
        type            empty;
    }
}


// ************************************************************************* //
