/*--------------------------------*- C++ -*----------------------------------*\
| =========                 |                                                 |
| \\      /  F ield         | OpenFOAM: The Open Source CFD Toolbox           |
|  \\    /   O peration     | Version:  2406                                  |
|   \\  /    A nd           | Website:  www.openfoam.com                      |
|    \\/     M anipulation  |                                                 |
\*---------------------------------------------------------------------------*/
FoamFile
{
    version     2.0;
    format      ascii;
    arch        "LSB;label=32;scalar=64";
    class       surfaceScalarField;
    location    "3";
    object      phi;
}
// * * * * * * * * * * * * * * * * * * * * * * * * * * * * * * * * * * * * * //

dimensions      [0 3 -1 0 0 0 0];

oriented        oriented;

internalField   nonuniform List<scalar> 
28
(
1.1e-08
2.07579e-15
1.1e-08
1.34832e-15
1.1e-08
-8.08776e-16
1.1e-08
-7.21581e-15
1.1e-08
-1.63137e-14
1.1e-08
-2.40547e-15
1.1e-08
1.5527e-14
1.1e-08
1.06529e-14
1.1e-08
-4.21192e-15
-4.23636e-15
1.1e-08
1.1e-08
1.1e-08
1.1e-08
1.1e-08
1.1e-08
1.1e-08
1.1e-08
1.1e-08
)
;

boundaryField
{
    inlet
    {
        type            calculated;
        value           uniform -1.1e-08;
    }
    outlet
    {
        type            calculated;
        value           nonuniform List<scalar> 2(1.1e-08 1.1e-08);
    }
    walls
    {
        type            calculated;
        value           uniform 0;
    }
    frontAndBack
    {
        type            empty;
    }
}


// ************************************************************************* //
