/*--------------------------------*- C++ -*----------------------------------*\
| =========                 |                                                 |
| \\      /  F ield         | OpenFOAM: The Open Source CFD Toolbox           |
|  \\    /   O peration     | Version:  2406                                  |
|   \\  /    A nd           | Website:  www.openfoam.com                      |
|    \\/     M anipulation  |                                                 |
\*---------------------------------------------------------------------------*/
FoamFile
{
    version     2.0;
    format      ascii;
    arch        "LSB;label=32;scalar=64";
    class       surfaceScalarField;
    location    "3";
    object      phi;
}
// * * * * * * * * * * * * * * * * * * * * * * * * * * * * * * * * * * * * * //

dimensions      [0 3 -1 0 0 0 0];

oriented        oriented;

internalField   nonuniform List<scalar> 
276
(
5.34577e-09
1.54228e-10
5.10947e-09
2.36299e-10
4.87807e-09
2.31397e-10
4.66754e-09
2.10531e-10
4.48203e-09
1.85518e-10
4.32349e-09
1.58533e-10
4.19146e-09
1.32036e-10
4.0834e-09
1.08056e-10
3.99583e-09
8.75721e-11
3.92542e-09
7.04093e-11
3.86921e-09
5.62087e-11
3.82461e-09
4.46026e-11
3.78939e-09
3.52124e-11
3.76172e-09
2.76729e-11
3.74007e-09
2.16546e-11
3.72319e-09
1.68733e-11
3.7101e-09
1.30895e-11
3.7e-09
1.01049e-11
3.69224e-09
7.75743e-12
3.68632e-09
5.91618e-12
3.68185e-09
4.47623e-12
3.67849e-09
3.35409e-12
3.67601e-09
2.48357e-12
3.6742e-09
1.81222e-12
3.6729e-09
1.29851e-12
3.67199e-09
9.09388e-13
3.67137e-09
6.18508e-13
3.67097e-09
4.04713e-13
3.67072e-09
2.50948e-13
3.67057e-09
1.43497e-13
3.6705e-09
7.13898e-14
3.67048e-09
2.58017e-14
3.67048e-09
-3.59871e-15
3.6705e-09
-2.36316e-14
3.67053e-09
-3.02853e-14
3.67056e-09
-3.09092e-14
3.67059e-09
-2.82636e-14
3.67062e-09
-2.39031e-14
3.67063e-09
-1.88971e-14
-1.31098e-14
5.65423e-09
4.86054e-17
5.89053e-09
8.20775e-17
6.12192e-09
8.71143e-17
6.33246e-09
7.56339e-17
6.51797e-09
5.49069e-17
6.67651e-09
3.09684e-17
6.80854e-09
6.29487e-18
6.9166e-09
-2.06742e-17
7.00417e-09
-4.87835e-17
7.07458e-09
-7.23714e-17
7.13079e-09
-8.52344e-17
7.17539e-09
-8.27239e-17
7.2106e-09
-6.29114e-17
7.23828e-09
-2.68676e-17
7.25993e-09
2.00889e-17
7.2768e-09
7.10407e-17
7.28989e-09
1.24715e-16
7.3e-09
1.84811e-16
7.30776e-09
2.58057e-16
7.31367e-09
3.46853e-16
7.31815e-09
4.42839e-16
7.3215e-09
5.30926e-16
7.32398e-09
6.02399e-16
7.3258e-09
6.60072e-16
7.32709e-09
7.04164e-16
7.328e-09
7.18719e-16
7.32862e-09
6.86166e-16
7.32902e-09
6.15635e-16
7.32927e-09
5.36745e-16
7.32942e-09
4.23405e-16
7.32949e-09
2.98579e-16
7.32951e-09
2.11338e-16
7.32951e-09
1.54429e-16
7.32949e-09
7.81608e-17
7.32946e-09
7.0699e-17
7.32942e-09
8.74811e-17
7.3294e-09
8.45441e-17
7.32937e-09
9.54725e-17
7.32936e-09
1.52635e-16
1.17582e-16
5.65423e-09
-1.54228e-10
5.89053e-09
-2.36299e-10
6.12192e-09
-2.31397e-10
6.33246e-09
-2.10531e-10
6.51797e-09
-1.85518e-10
6.67651e-09
-1.58534e-10
6.80854e-09
-1.32036e-10
6.9166e-09
-1.08056e-10
7.00417e-09
-8.75723e-11
7.07458e-09
-7.04096e-11
7.13079e-09
-5.62089e-11
7.17539e-09
-4.46029e-11
7.2106e-09
-3.52127e-11
7.23828e-09
-2.76731e-11
7.25993e-09
-2.16548e-11
7.2768e-09
-1.68734e-11
7.28989e-09
-1.30895e-11
7.3e-09
-1.01049e-11
7.30776e-09
-7.7573e-12
7.31367e-09
-5.91594e-12
7.31815e-09
-4.47588e-12
7.3215e-09
-3.35363e-12
7.32399e-09
-2.483e-12
7.3258e-09
-1.81158e-12
7.3271e-09
-1.29784e-12
7.32801e-09
-9.08739e-13
7.32862e-09
-6.17936e-13
7.32903e-09
-4.04271e-13
7.32928e-09
-2.50666e-13
7.32942e-09
-1.43342e-13
7.32949e-09
-7.14282e-14
7.32952e-09
-2.59409e-14
7.32952e-09
3.58839e-15
7.32949e-09
2.35123e-14
7.32946e-09
3.01687e-14
7.32943e-09
3.06613e-14
7.32941e-09
2.79131e-14
7.32938e-09
2.35559e-14
7.32936e-09
1.86071e-14
1.29861e-14
5.34577e-09
5.10947e-09
4.87807e-09
4.66754e-09
4.48203e-09
4.32349e-09
4.19146e-09
4.0834e-09
3.99583e-09
3.92542e-09
3.86921e-09
3.82461e-09
3.78939e-09
3.76172e-09
3.74007e-09
3.72319e-09
3.7101e-09
3.7e-09
3.69224e-09
3.68632e-09
3.68185e-09
3.6785e-09
3.67601e-09
3.6742e-09
3.6729e-09
3.67199e-09
3.67138e-09
3.67097e-09
3.67072e-09
3.67058e-09
3.67051e-09
3.67048e-09
3.67049e-09
3.67051e-09
3.67054e-09
3.67057e-09
3.6706e-09
3.67062e-09
3.67064e-09
)
;

boundaryField
{
    inlet
    {
        type            calculated;
        value           nonuniform List<scalar> 4(-5.5e-09 -5.5e-09 -5.5e-09 -5.5e-09);
    }
    outlet
    {
        type            calculated;
        value           nonuniform List<scalar> 4(3.67065e-09 7.32934e-09 7.32935e-09 3.67065e-09);
    }
    walls
    {
        type            calculated;
        value           uniform 0;
    }
    frontAndBack
    {
        type            empty;
    }
}


// ************************************************************************* //
