/*--------------------------------*- C++ -*----------------------------------*\
| =========                 |                                                 |
| \\      /  F ield         | OpenFOAM: The Open Source CFD Toolbox           |
|  \\    /   O peration     | Version:  2406                                  |
|   \\  /    A nd           | Website:  www.openfoam.com                      |
|    \\/     M anipulation  |                                                 |
\*---------------------------------------------------------------------------*/
FoamFile
{
    version     2.0;
    format      ascii;
    arch        "LSB;label=32;scalar=64";
    class       volVectorField;
    location    "3";
    object      U;
}
// * * * * * * * * * * * * * * * * * * * * * * * * * * * * * * * * * * * * * //

dimensions      [0 1 -1 0 0 0 0];

internalField   nonuniform List<vector> 
160
(
(0.0189987 0.000658025 0)
(0.0187799 0.00126485 0)
(0.0182316 0.00141777 0)
(0.0174121 0.00136971 0)
(0.0166273 0.00123816 0)
(0.0159818 0.0010702 0)
(0.0154583 0.00089357 0)
(0.0150283 0.000726919 0)
(0.014676 0.000579765 0)
(0.014391 0.000455146 0)
(0.0141627 0.000352644 0)
(0.0139813 0.000270192 0)
(0.0138377 0.000205008 0)
(0.0137246 0.000154161 0)
(0.0136359 0.000114904 0)
(0.0135666 8.48431e-05 0)
(0.0135128 6.19841e-05 0)
(0.0134711 4.47119e-05 0)
(0.013439 3.17443e-05 0)
(0.0134145 2.20776e-05 0)
(0.0133958 1.49336e-05 0)
(0.0133818 9.7127e-06 0)
(0.0133713 5.95332e-06 0)
(0.0133636 3.30009e-06 0)
(0.0133581 1.4785e-06 0)
(0.0133541 2.75998e-07 0)
(0.0133514 -4.72266e-07 0)
(0.0133496 -8.93937e-07 0)
(0.0133484 -1.0873e-06 0)
(0.0133477 -1.12689e-06 0)
(0.0133474 -1.06793e-06 0)
(0.0133472 -9.50414e-07 0)
(0.0133472 -8.01892e-07 0)
(0.0133472 -6.46804e-07 0)
(0.0133473 -5.06041e-07 0)
(0.0133474 -3.86548e-07 0)
(0.0133476 -2.88065e-07 0)
(0.0133477 -2.0847e-07 0)
(0.0133477 -1.44975e-07 0)
(0.0133478 -9.43266e-08 0)
(0.0201135 0.000651381 0)
(0.020894 0.00123746 0)
(0.0218079 0.00139043 0)
(0.0226522 0.00136413 0)
(0.0233815 0.00126669 0)
(0.0240064 0.00113688 0)
(0.0245353 0.000995374 0)
(0.0249729 0.000855978 0)
(0.025328 0.000726336 0)
(0.0256132 0.000609811 0)
(0.0258409 0.000507456 0)
(0.026022 0.000419097 0)
(0.0261653 0.000343864 0)
(0.026278 0.000280506 0)
(0.0263663 0.000227619 0)
(0.0264352 0.000183793 0)
(0.0264887 0.000147697 0)
(0.0265301 0.000118121 0)
(0.0265619 9.39912e-05 0)
(0.0265863 7.43786e-05 0)
(0.0266048 5.84906e-05 0)
(0.0266187 4.56624e-05 0)
(0.0266291 3.53426e-05 0)
(0.0266367 2.70774e-05 0)
(0.0266422 2.04948e-05 0)
(0.026646 1.52901e-05 0)
(0.0266487 1.12128e-05 0)
(0.0266505 8.05521e-06 0)
(0.0266516 5.64438e-06 0)
(0.0266523 3.83476e-06 0)
(0.0266526 2.5042e-06 0)
(0.0266528 1.55068e-06 0)
(0.0266528 8.92936e-07 0)
(0.0266527 4.60427e-07 0)
(0.0266526 1.87608e-07 0)
(0.0266525 2.43881e-08 0)
(0.0266524 -6.42861e-08 0)
(0.0266523 -1.03182e-07 0)
(0.0266522 -1.1256e-07 0)
(0.0266522 -9.63339e-08 0)
(0.0201135 -0.000651381 0)
(0.020894 -0.00123746 0)
(0.0218079 -0.00139043 0)
(0.0226522 -0.00136413 0)
(0.0233815 -0.00126669 0)
(0.0240064 -0.00113688 0)
(0.0245353 -0.000995375 0)
(0.0249729 -0.000855979 0)
(0.025328 -0.000726337 0)
(0.0256132 -0.000609813 0)
(0.0258409 -0.000507457 0)
(0.026022 -0.000419099 0)
(0.0261653 -0.000343866 0)
(0.026278 -0.000280508 0)
(0.0263663 -0.00022762 0)
(0.0264352 -0.000183793 0)
(0.0264887 -0.000147697 0)
(0.0265301 -0.000118119 0)
(0.0265619 -9.39889e-05 0)
(0.0265863 -7.4375e-05 0)
(0.0266048 -5.84856e-05 0)
(0.0266187 -4.5656e-05 0)
(0.0266291 -3.53349e-05 0)
(0.0266367 -2.70686e-05 0)
(0.0266422 -2.04853e-05 0)
(0.026646 -1.52804e-05 0)
(0.0266487 -1.12034e-05 0)
(0.0266505 -8.04679e-06 0)
(0.0266516 -5.63716e-06 0)
(0.0266523 -3.82897e-06 0)
(0.0266527 -2.50018e-06 0)
(0.0266528 -1.5477e-06 0)
(0.0266528 -8.90948e-07 0)
(0.0266528 -4.596e-07 0)
(0.0266527 -1.87163e-07 0)
(0.0266525 -2.44767e-08 0)
(0.0266524 6.37576e-08 0)
(0.0266523 1.02657e-07 0)
(0.0266523 1.12614e-07 0)
(0.0266522 9.69306e-08 0)
(0.0189987 -0.000658025 0)
(0.0187799 -0.00126485 0)
(0.0182316 -0.00141777 0)
(0.0174121 -0.00136971 0)
(0.0166273 -0.00123817 0)
(0.0159818 -0.0010702 0)
(0.0154583 -0.000893571 0)
(0.0150283 -0.00072692 0)
(0.014676 -0.000579766 0)
(0.014391 -0.000455147 0)
(0.0141627 -0.000352645 0)
(0.0139813 -0.000270193 0)
(0.0138377 -0.000205009 0)
(0.0137246 -0.000154162 0)
(0.0136359 -0.000114904 0)
(0.0135666 -8.4843e-05 0)
(0.0135128 -6.19836e-05 0)
(0.0134711 -4.4711e-05 0)
(0.013439 -3.1743e-05 0)
(0.0134145 -2.2076e-05 0)
(0.0133958 -1.49319e-05 0)
(0.0133818 -9.7109e-06 0)
(0.0133713 -5.95162e-06 0)
(0.0133636 -3.29861e-06 0)
(0.0133581 -1.4774e-06 0)
(0.0133541 -2.7541e-07 0)
(0.0133514 4.72246e-07 0)
(0.0133496 8.93287e-07 0)
(0.0133484 1.08607e-06 0)
(0.0133478 1.1254e-06 0)
(0.0133474 1.06616e-06 0)
(0.0133472 9.48745e-07 0)
(0.0133472 8.00201e-07 0)
(0.0133473 6.45267e-07 0)
(0.0133474 5.04854e-07 0)
(0.0133475 3.85106e-07 0)
(0.0133476 2.86407e-07 0)
(0.0133477 2.07006e-07 0)
(0.0133478 1.43901e-07 0)
(0.0133478 9.38201e-08 0)
)
;

boundaryField
{
    inlet
    {
        type            fixedValue;
        value           uniform (0.02 0 0);
    }
    outlet
    {
        type            zeroGradient;
    }
    walls
    {
        type            noSlip;
    }
    frontAndBack
    {
        type            empty;
    }
}


// ************************************************************************* //
