/*--------------------------------*- C++ -*----------------------------------*\
| =========                 |                                                 |
| \\      /  F ield         | OpenFOAM: The Open Source CFD Toolbox           |
|  \\    /   O peration     | Version:  2406                                  |
|   \\  /    A nd           | Website:  www.openfoam.com                      |
|    \\/     M anipulation  |                                                 |
\*---------------------------------------------------------------------------*/
FoamFile
{
    version     2.0;
    format      ascii;
    arch        "LSB;label=32;scalar=64";
    class       volVectorField;
    location    "3";
    object      U;
}
// * * * * * * * * * * * * * * * * * * * * * * * * * * * * * * * * * * * * * //

dimensions      [0 1 -1 0 0 0 0];

internalField   nonuniform List<vector> 
20
(
(0.0186868 3.47038e-09 0)
(0.0195222 1.84083e-09 0)
(0.0201054 -6.73039e-10 0)
(0.0202068 -9.86003e-09 0)
(0.0200654 -3.35265e-08 0)
(0.0199599 -7.32489e-09 0)
(0.019966 2.46756e-08 0)
(0.0200004 2.46381e-08 0)
(0.0200085 -3.96858e-09 0)
(0.0199997 -7.25325e-09 0)
(0.0186868 3.47024e-09 0)
(0.0195222 1.84104e-09 0)
(0.0201054 -6.72575e-10 0)
(0.0202068 -9.8599e-09 0)
(0.0200653 -3.35274e-08 0)
(0.0199599 -7.32658e-09 0)
(0.019966 2.4673e-08 0)
(0.0200003 2.46351e-08 0)
(0.0200084 -3.97132e-09 0)
(0.0199997 -7.25477e-09 0)
)
;

boundaryField
{
    inlet
    {
        type            fixedValue;
        value           uniform (0.02 0 0);
    }
    outlet
    {
        type            zeroGradient;
    }
    walls
    {
        type            noSlip;
    }
    frontAndBack
    {
        type            empty;
    }
}


// ************************************************************************* //
